# vtk DataFile Version 3.0
Gray-Scott Simulation Output
ASCII
DATASET STRUCTURED_POINTS
DIMENSIONS 256 256 1
SPACING 1.0 1.0 1.0
ORIGIN 0 0 0
POINT_DATA 65536
SCALARS u double
LOOKUP_TABLE default
0 0 0 0 0 0 0 0 0 0 0 0 0 0 0 0 0 0 0 0 0 0 0 0 0 0 0 0 0 0 0 0 0 0 0 0 0 0 0 0 0 0 0 0 0 0 0 0 0 0 0 0 0 0 0 0 0 0 0 0 0 0 0 0 0 0 0 0 0 0 0 0 0 0 0 0 0 0 0 0 0 0 0 0 0 0 0 0 0 0 0 0 0 0 0 0 0 0 0 0 0 0 0 0 0 0 0 0 0 0 0 0 0 0 0 0 0 0 0 0 0 0 0 0 0 0 0 0 0 0 0 0 0 0 0 0 0 0 0 0 0 0 0 0 0 0 0 0 0 0 0 0 0 0 0 0 0 0 0 0 0 0 0 0 0 0 0 0 0 0 0 0 0 0 0 0 0 0 0 0 0 0 0 0 0 0 0 0 0 0 0 0 0 0 0 0 0 0 0 0 0 0 0 0 0 0 0 0 0 0 0 0 0 0 0 0 0 0 0 0 0 0 0 0 0 0 0 0 0 0 0 0 0 0 0 0 0 0 0 0 0 0 0 0 0 0 0 0 0 0 0 0 0 0 0 0 
0 0 0 0 0 0 0 0 0 0 0 0 0 0 0 0 0 0 0 0 0 0 0 0 0 0 0 0 1.13635e-322 6.18965e-320 3.1974e-317 1.57918e-314 7.46202e-312 3.37563e-309 1.46281e-306 6.07567e-304 2.41987e-301 9.24655e-299 3.39107e-296 1.19405e-293 4.03822e-291 1.31208e-288 4.09689e-286 1.22961e-283 3.54804e-281 9.84437e-279 2.62678e-276 6.74126e-274 1.66407e-271 3.95128e-269 9.02492e-267 1.98282e-264 4.19022e-262 8.51678e-260 1.66476e-257 3.12904e-255 5.65432e-253 9.82143e-251 1.63944e-248 2.62923e-246 4.0499e-244 5.98963e-242 8.50223e-240 1.15788e-237 1.51216e-235 1.89285e-233 2.26977e-231 2.60576e-229 2.86215e-227 3.00571e-225 3.01551e-223 2.8878e-221 2.63735e-219 2.29471e-217 1.90008e-215 1.49549e-213 1.11737e-211 7.91395e-210 5.30506e-208 3.36002e-206 2.00689e-204 1.12803e-202 5.9528e-201 2.94168e-199 1.3573e-197 5.8282e-196 2.32036e-194 8.52887e-193 2.88016e-191 8.88514e-190 2.48733e-188 6.26867e-187 1.40872e-185 2.78972e-184 4.79662e-183 7.0245e-182 8.5393e-181 8.3109e-180 6.13392e-179 3.14001e-178 9.41628e-178 1.13109e-177 8.95364e-178 1.14674e-177 9.16344e-178 8.68558e-178 6.6603e-178 1.23481e-177 1.71387e-177 1.66452e-177 1.4677e-177 1.08466e-177 1.202e-177 1.65681e-177 1.69976e-177 1.58442e-177 1.06057e-177 1.45129e-177 1.5521e-177 1.30832e-177 8.16853e-178 7.74733e-178 1.18785e-177 1.2825e-177 1.64122e-177 1.42901e-177 1.08191e-177 1.19429e-177 8.75442e-178 5.94168e-178 7.24962e-178 1.16433e-177 8.11712e-178 9.28815e-178 1.41345e-177 1.31539e-177 9.42126e-178 9.45782e-178 5.07848e-178 4.75081e-178 6.68384e-178 8.0116e-178 1.36501e-177 1.09997e-177 1.01443e-177 1.27887e-177 1.35796e-177 1.51992e-177 1.58132e-177 1.21754e-177 1.44698e-177 1.2187e-177 1.22463e-177 6.684e-178 4.88472e-178 7.36972e-178 5.7339e-178 4.46043e-178 8.84614e-178 1.34325e-177 1.14077e-177 1.29439e-177 1.0781e-177 6.48467e-178 5.22012e-178 8.76478e-178 1.35984e-177 1.40908e-177 9.4764e-178 5.39586e-178 7.288e-178 1.0995e-177 1.11645e-177 7.19483e-178 9.68616e-178 7.90663e-178 4.53398e-178 5.73093e-178 1.06744e-177 5.28723e-178 6.31242e-178 1.4807e-177 1.57945e-177 1.40006e-177 1.05845e-177 5.38773e-178 4.90225e-178 1.00456e-177 1.59696e-177 1.45928e-177 1.17183e-177 1.02758e-177 1.3969e-177 1.78559e-177 1.75847e-177 1.65957e-177 1.72974e-177 1.62211e-177 1.1107e-177 1.37998e-177 1.11162e-177 3.66759e-178 7.12818e-179 9.62925e-180 9.87432e-181 8.11117e-182 5.53268e-183 3.21507e-184 1.62238e-185 7.21522e-187 2.86148e-188 1.02172e-189 3.31071e-191 9.80045e-193 2.66548e-194 6.69319e-196 1.55834e-197 3.37659e-199 6.83138e-201 1.29425e-202 2.30216e-204 3.85368e-206 6.08344e-208 9.07362e-210 1.28091e-211 1.71411e-213 2.17754e-215 2.62943e-217 3.02165e-219 3.30818e-221 3.45405e-223 3.44242e-225 3.27763e-227 2.98369e-229 2.59869e-231 2.16692e-233 1.73094e-235 1.32528e-237 9.73046e-240 6.85425e-242 4.6341e-244 3.00823e-246 1.8756e-248 1.12353e-250 6.46774e-253 3.57889e-255 1.90395e-257 9.73968e-260 4.79152e-262 2.26718e-264 1.03185e-266 4.5173e-269 1.90232e-271 7.70588e-274 3.00241e-276 0 
0 0 0 0 0 0 0 0 0 0 0 0 0 0 0 0 0 0 0 0 0 0 0 0 0 0 0 1.58101e-322 8.51028e-320 4.45824e-317 2.23336e-314 1.07061e-311 4.91437e-309 2.16139e-306 9.11319e-304 3.68551e-301 1.43027e-298 5.32859e-296 1.90655e-293 6.55351e-291 2.16482e-288 6.87406e-286 2.0987e-283 6.162e-281 1.74023e-278 4.72786e-276 1.2358e-273 3.10811e-271 7.52196e-269 1.75173e-266 3.92557e-264 8.46503e-262 1.75638e-259 3.50619e-257 6.73333e-255 1.24377e-252 2.20948e-250 3.77389e-248 6.19635e-246 9.77714e-244 1.48212e-241 2.15777e-239 3.01586e-237 4.04499e-235 5.20386e-233 6.41823e-231 7.58485e-229 8.58337e-227 9.29528e-225 9.62609e-223 9.52534e-221 8.99883e-219 8.10897e-217 6.96276e-215 5.6906e-213 4.42156e-211 3.26187e-209 2.28144e-207 1.51051e-205 9.45054e-204 5.57681e-202 3.09739e-200 1.61537e-198 7.89009e-197 3.59881e-195 1.52782e-193 6.01461e-192 2.18632e-190 7.30243e-189 2.22842e-187 6.17171e-186 1.53901e-184 3.4225e-183 6.70793e-182 1.14166e-180 1.65521e-179 1.9924e-178 1.92051e-177 1.40433e-176 7.12686e-176 2.12223e-175 2.5503e-175 2.02675e-175 2.5853e-175 2.07105e-175 1.95999e-175 1.5117e-175 2.78828e-175 3.86666e-175 3.75863e-175 3.31332e-175 2.4542e-175 2.7178e-175 3.7386e-175 3.83817e-175 3.57543e-175 2.40443e-175 3.2755e-175 3.50244e-175 2.95243e-175 1.84887e-175 1.75389e-175 2.67979e-175 2.89922e-175 3.70185e-175 3.22634e-175 2.44777e-175 2.69301e-175 1.97714e-175 1.34552e-175 1.64012e-175 2.62225e-175 1.83764e-175 2.10108e-175 3.187e-175 2.96818e-175 2.13107e-175 2.13163e-175 1.15078e-175 1.07496e-175 1.50878e-175 1.81366e-175 3.07553e-175 2.48599e-175 2.2941e-175 2.88646e-175 3.06786e-175 3.43224e-175 3.56808e-175 2.75573e-175 3.26405e-175 2.75478e-175 2.76054e-175 1.51305e-175 1.10716e-175 1.66011e-175 1.29498e-175 1.01255e-175 1.99783e-175 3.02759e-175 2.57982e-175 2.91999e-175 2.43276e-175 1.46724e-175 1.18321e-175 1.98035e-175 3.06708e-175 3.1778e-175 2.14064e-175 1.22426e-175 1.64747e-175 2.4796e-175 2.51752e-175 1.63123e-175 2.1834e-175 1.78378e-175 1.0282e-175 1.29799e-175 2.40141e-175 1.20062e-175 1.43319e-175 3.33776e-175 3.56501e-175 3.16061e-175 2.38855e-175 1.22102e-175 1.11232e-175 2.26947e-175 3.60034e-175 3.29454e-175 2.64765e-175 2.32529e-175 3.15514e-175 4.02958e-175 3.97157e-175 3.75028e-175 3.90574e-175 3.66057e-175 2.51645e-175 3.11205e-175 2.50621e-175 8.3267e-176 1.63238e-176 2.22566e-177 2.30436e-178 1.91163e-179 1.31709e-180 7.73202e-182 3.94224e-183 1.77168e-184 7.10116e-186 2.56289e-187 8.39522e-189 2.51263e-190 6.91013e-192 1.7548e-193 4.13237e-195 9.05771e-197 1.854e-198 3.55422e-200 6.39806e-202 1.08402e-203 1.73232e-205 2.61603e-207 3.73965e-209 5.06844e-211 6.5222e-213 7.97916e-215 9.29145e-217 1.03098e-218 1.09116e-220 1.10257e-222 1.06456e-224 9.82915e-227 8.68476e-229 7.34819e-231 5.95725e-233 4.63015e-235 3.45181e-237 2.46945e-239 1.69605e-241 1.11874e-243 7.08947e-246 4.31748e-248 2.52752e-250 1.42269e-252 7.7013e-255 4.00992e-257 2.00856e-259 9.67971e-262 4.48854e-264 2.0028e-266 8.59945e-269 3.55308e-271 1.41261e-273 0 
0 0 0 0 0 0 0 0 0 0 0 0 0 0 0 0 0 0 0 0 0 0 0 0 0 0 2.02567e-322 1.14238e-319 6.06801e-317 3.08258e-314 1.49881e-311 6.97961e-309 3.11485e-306 1.33293e-303 5.47222e-301 2.15632e-298 8.15905e-296 2.96561e-293 1.03583e-290 3.47773e-288 1.1227e-285 3.48576e-283 1.0411e-280 2.99176e-278 8.27314e-276 2.2018e-273 5.64016e-271 1.39073e-268 3.30102e-266 7.54249e-264 1.65896e-261 3.51235e-259 7.15757e-257 1.40378e-254 2.64939e-252 4.81101e-250 8.4041e-248 1.41194e-245 2.2809e-243 3.54192e-241 5.28539e-239 7.57652e-237 1.04292e-234 1.37794e-232 1.74667e-230 2.12308e-228 2.47318e-226 2.75939e-224 2.94679e-222 3.00991e-220 2.93821e-218 2.73884e-216 2.43558e-214 2.06419e-212 1.66545e-210 1.27769e-208 9.30814e-207 6.43015e-205 4.20549e-203 2.59955e-201 1.51579e-199 8.32e-198 4.28878e-196 2.07081e-194 9.33834e-193 3.92009e-191 1.52616e-189 5.48694e-188 1.81285e-186 5.47303e-185 1.49977e-183 3.70088e-182 8.14529e-181 1.58019e-179 2.6624e-178 3.82185e-177 4.55573e-176 4.3497e-175 3.15151e-174 1.58571e-173 4.68929e-173 5.63749e-173 4.49757e-173 5.71429e-173 4.58892e-173 4.33626e-173 3.36358e-173 6.17269e-173 8.55252e-173 8.32081e-173 7.33312e-173 5.44396e-173 6.0245e-173 8.27076e-173 8.49681e-173 7.91028e-173 5.34391e-173 7.24773e-173 7.7485e-173 6.53199e-173 4.10254e-173 3.89259e-173 5.92713e-173 6.4253e-173 8.18603e-173 7.14142e-173 5.42917e-173 5.95345e-173 4.37764e-173 2.98715e-173 3.63764e-173 5.79002e-173 4.0785e-173 4.65953e-173 7.04507e-173 6.56636e-173 4.72572e-173 4.71019e-173 2.55637e-173 2.38458e-173 3.33911e-173 4.02505e-173 6.79378e-173 5.50818e-173 5.08617e-173 6.38713e-173 6.79482e-173 7.59854e-173 7.89316e-173 6.11469e-173 7.21867e-173 6.10471e-173 6.10084e-173 3.3578e-173 2.46013e-173 3.66629e-173 2.86728e-173 2.2533e-173 4.42341e-173 6.69024e-173 5.71962e-173 6.45799e-173 5.38195e-173 3.25464e-173 2.62921e-173 4.3867e-173 6.78204e-173 7.02613e-173 4.74068e-173 2.72307e-173 3.65108e-173 5.48235e-173 5.56555e-173 3.62558e-173 4.82524e-173 3.94541e-173 2.28587e-173 2.88201e-173 5.29668e-173 2.67266e-173 3.18993e-173 7.37649e-173 7.88878e-173 6.99502e-173 5.28444e-173 2.7128e-173 2.47424e-173 5.02647e-173 7.95783e-173 7.29199e-173 5.86477e-173 5.15852e-173 6.98667e-173 8.91534e-173 8.79401e-173 8.30857e-173 8.64619e-173 8.09883e-173 5.58927e-173 6.88055e-173 5.53961e-173 1.85322e-173 3.6642e-174 5.04198e-175 5.27017e-176 4.4148e-177 3.07207e-178 1.82175e-179 9.38379e-181 4.26106e-182 1.7259e-183 6.29542e-185 2.08444e-186 6.30674e-188 1.75362e-189 4.50306e-191 1.07242e-192 2.37755e-194 4.92295e-196 9.54822e-198 1.73921e-199 2.98215e-201 4.82359e-203 7.37397e-205 1.06727e-206 1.46477e-208 1.90902e-210 2.36575e-212 2.79101e-214 3.13813e-216 3.36614e-218 3.44787e-220 3.37517e-222 3.16016e-224 2.83207e-226 2.43091e-228 1.99972e-230 1.57741e-232 1.19377e-234 8.67161e-237 6.04876e-239 4.05311e-241 2.60986e-243 1.61544e-245 9.61453e-248 5.50348e-250 3.03048e-252 1.60558e-254 8.18584e-257 4.01663e-259 1.89701e-261 8.62412e-264 3.77413e-266 1.58994e-268 6.44753e-271 0 
0 0 0 0 0 0 0 0 0 0 0 0 0 0 0 0 0 0 0 0 0 0 0 0 0 2.66795e-322 1.49746e-319 8.06279e-317 4.15281e-314 2.04761e-311 9.67146e-309 4.37871e-306 1.90132e-303 7.92218e-301 3.16901e-298 1.21753e-295 4.49455e-293 1.59477e-290 5.44069e-288 1.78518e-285 5.63499e-283 1.71153e-280 5.00313e-278 1.40779e-275 3.81355e-273 9.9464e-271 2.49795e-268 6.04093e-266 1.40683e-263 3.15496e-261 6.81319e-259 1.41674e-256 2.83645e-254 5.46715e-252 1.01435e-249 1.81127e-247 3.11217e-245 5.14436e-243 8.17856e-241 1.25019e-238 1.8369e-236 2.5933e-234 3.51647e-232 4.57783e-230 5.7188e-228 6.85201e-226 7.86961e-224 8.6585e-222 9.12003e-220 9.18964e-218 8.85127e-216 8.14226e-214 7.14679e-212 5.97948e-210 4.76345e-208 3.6088e-206 2.59666e-204 1.77197e-202 1.14498e-200 6.99343e-199 4.02999e-197 2.18636e-195 1.11411e-193 5.31845e-192 2.37151e-190 9.84507e-189 3.79091e-187 1.34819e-185 4.40673e-184 1.31633e-182 3.56945e-181 8.71716e-180 1.89899e-178 3.64694e-177 6.08354e-176 8.64741e-175 1.02088e-173 9.6556e-173 6.93246e-172 3.45871e-171 1.01584e-170 1.22176e-170 9.78445e-171 1.23829e-170 9.96827e-171 9.40561e-171 7.3368e-171 1.33972e-170 1.85462e-170 1.80593e-170 1.59118e-170 1.18389e-170 1.30924e-170 1.79385e-170 1.84411e-170 1.71579e-170 1.16435e-170 1.57229e-170 1.6806e-170 1.41682e-170 8.92464e-171 8.4696e-171 1.28527e-170 1.39604e-170 1.77473e-170 1.54974e-170 1.18055e-170 1.29035e-170 9.50256e-171 6.50145e-171 7.90952e-171 1.25342e-170 8.87409e-171 1.01306e-170 1.52684e-170 1.42416e-170 1.02736e-170 1.02041e-170 5.56715e-171 5.18591e-171 7.24507e-171 8.75725e-171 1.47134e-170 1.19649e-170 1.10551e-170 1.38564e-170 1.47543e-170 1.64924e-170 1.71188e-170 1.33014e-170 1.56519e-170 1.32627e-170 1.32188e-170 7.30536e-171 5.35899e-171 7.93826e-171 6.22409e-171 4.91574e-171 9.60182e-171 1.44942e-170 1.24317e-170 1.40029e-170 1.1673e-170 7.0778e-171 5.72759e-171 9.5264e-171 1.47027e-170 1.52303e-170 1.02929e-170 5.93771e-171 7.93271e-171 1.18837e-170 1.20628e-170 7.89967e-171 1.04547e-170 8.55543e-171 4.98201e-171 6.27332e-171 1.1454e-170 5.83243e-171 6.9603e-171 1.59828e-170 1.71142e-170 1.51777e-170 1.14622e-170 5.90878e-171 5.39549e-171 1.09144e-170 1.72445e-170 1.58232e-170 1.27362e-170 1.12192e-170 1.51678e-170 1.93383e-170 1.90903e-170 1.80462e-170 1.8765e-170 1.75672e-170 1.21703e-170 1.49144e-170 1.20045e-170 4.04337e-171 8.06233e-172 1.1195e-172 1.18123e-173 9.99101e-175 7.02096e-176 4.2052e-177 2.18811e-178 1.00382e-179 4.10828e-181 1.51436e-182 5.06765e-184 1.54984e-185 4.35653e-187 1.13107e-188 2.72382e-190 6.10704e-192 1.27901e-193 2.50942e-195 4.62453e-197 8.02364e-199 1.31341e-200 2.03228e-202 2.97764e-204 4.13763e-206 5.46068e-208 6.85372e-210 8.19058e-212 9.33021e-214 1.01414e-215 1.05278e-217 1.04468e-219 9.91697e-222 9.01241e-224 7.84619e-226 6.54787e-228 5.24096e-230 4.02545e-232 2.96837e-234 2.10237e-236 1.43073e-238 9.35885e-241 5.88625e-243 3.56068e-245 2.07212e-247 1.16034e-249 6.2535e-252 3.24417e-254 1.62026e-256 7.79135e-259 3.60764e-261 1.60857e-263 6.90671e-266 2.8557e-268 0 
0 0 0 0 0 0 0 0 0 0 0 0 0 0 0 0 0 0 0 0 0 0 0 0 3.35965e-322 1.91668e-319 1.04596e-316 5.4611e-314 2.73008e-311 1.30765e-308 6.0049e-306 2.64523e-303 1.11839e-300 4.54051e-298 1.77089e-295 6.63783e-293 2.39204e-290 8.29018e-288 2.76401e-285 8.8677e-283 2.73829e-280 8.14018e-278 2.32997e-275 6.42236e-273 1.70497e-270 4.3597e-268 1.07385e-265 2.54798e-263 5.82396e-261 1.28235e-258 2.71983e-256 5.55645e-254 1.09329e-251 2.07157e-249 3.77947e-247 6.63823e-245 1.12221e-242 1.82558e-240 2.85701e-238 4.30012e-236 6.22251e-234 8.65382e-232 1.1562e-229 1.48338e-227 1.82665e-225 2.15781e-223 2.44388e-221 2.65208e-219 2.75574e-217 2.7398e-215 2.60424e-213 2.36456e-211 2.0489e-209 1.69258e-207 1.33154e-205 9.96344e-204 7.0818e-202 4.77452e-200 3.04848e-198 1.84013e-196 1.04808e-194 5.62091e-193 2.8318e-191 1.33669e-189 5.89435e-188 2.42019e-186 9.21826e-185 3.24329e-183 1.04889e-181 3.10039e-180 8.32029e-179 2.01118e-177 4.33705e-176 8.2461e-175 1.36202e-173 1.91728e-172 2.24194e-171 2.10075e-170 1.49476e-169 7.39539e-169 2.15745e-168 2.59585e-168 2.08674e-168 2.63078e-168 2.12282e-168 2.00015e-168 1.56883e-168 2.85071e-168 3.9429e-168 3.84262e-168 3.38489e-168 2.52401e-168 2.78938e-168 3.81439e-168 3.92382e-168 3.64868e-168 2.48702e-168 3.34398e-168 3.57361e-168 3.01286e-168 1.90332e-168 1.80663e-168 2.73241e-168 2.97362e-168 3.77216e-168 3.29707e-168 2.51662e-168 2.74185e-168 2.02223e-168 1.38722e-168 1.68601e-168 2.66024e-168 1.89289e-168 2.15928e-168 3.24416e-168 3.02823e-168 2.18958e-168 2.16729e-168 1.18854e-168 1.10567e-168 1.54119e-168 1.86783e-168 3.12404e-168 2.54799e-168 2.3557e-168 2.94706e-168 3.14085e-168 3.50937e-168 3.63996e-168 2.83661e-168 3.32718e-168 2.82479e-168 2.80801e-168 1.55815e-168 1.1444e-168 1.6851e-168 1.32456e-168 1.05128e-168 2.04334e-168 3.07854e-168 2.64897e-168 2.97671e-168 2.48209e-168 1.50896e-168 1.22319e-168 2.0282e-168 3.12485e-168 3.23664e-168 2.19092e-168 1.26925e-168 1.68971e-168 2.52541e-168 2.56324e-168 1.68735e-168 2.2208e-168 1.81881e-168 1.06446e-168 1.33866e-168 2.42839e-168 1.24772e-168 1.48881e-168 3.39516e-168 3.63997e-168 3.22861e-168 2.43743e-168 1.2617e-168 1.15343e-168 2.32342e-168 3.66358e-168 3.36617e-168 2.71158e-168 2.39213e-168 3.22825e-168 4.11242e-168 4.06285e-168 3.84272e-168 3.99269e-168 3.7358e-168 2.5979e-168 3.1695e-168 2.55041e-168 8.64809e-169 1.73884e-169 2.43623e-170 2.59464e-171 2.21563e-172 1.5722e-173 9.51009e-175 4.9982e-176 2.31636e-177 9.5778e-179 3.56734e-180 1.20639e-181 3.72893e-183 1.05951e-184 2.78085e-186 6.77089e-188 1.53508e-189 3.25134e-191 6.45225e-193 1.20285e-194 2.11144e-196 3.49732e-198 5.47654e-200 8.12173e-202 1.14247e-203 1.5266e-205 1.94025e-207 2.34838e-209 2.70982e-211 2.9841e-213 3.13904e-215 3.15693e-217 3.03782e-219 2.79903e-221 2.47111e-223 2.09164e-225 1.6984e-227 1.32366e-229 9.90626e-232 7.12239e-234 4.92153e-236 3.26958e-238 2.08902e-240 1.28404e-242 7.59485e-245 4.32376e-247 2.36971e-249 1.25053e-251 6.35512e-254 3.11053e-256 1.46645e-258 6.65957e-261 2.91335e-263 1.22773e-265 0 
0 0 0 0 0 0 0 0 0 0 0 0 0 0 0 0 0 0 0 0 0 0 0 4.15015e-322 2.39582e-319 1.32485e-316 7.01071e-314 3.55275e-311 1.72533e-308 8.0345e-306 3.58984e-303 1.53976e-300 6.34313e-298 2.51086e-295 9.55406e-293 3.49591e-290 1.23052e-287 4.16775e-285 1.35869e-282 4.26431e-280 1.28879e-277 3.75142e-275 1.05187e-272 2.84141e-270 7.39534e-268 1.85468e-265 4.48216e-263 1.04382e-260 2.34251e-258 5.0658e-256 1.0556e-253 2.11938e-251 4.09944e-249 7.63828e-247 1.37073e-244 2.36874e-242 3.94091e-240 6.31082e-238 9.72453e-236 1.44149e-233 2.05481e-231 2.81569e-229 3.70746e-227 4.68869e-225 5.69246e-223 6.63118e-221 7.40754e-219 7.93009e-217 8.13032e-215 7.97705e-213 7.48403e-211 6.70826e-209 5.73926e-207 4.68199e-205 3.63788e-203 2.68897e-201 1.88828e-199 1.25795e-197 7.93755e-196 4.7357e-194 2.66639e-192 1.41379e-190 7.04288e-189 3.28762e-187 1.43386e-185 5.82361e-184 2.19442e-182 7.63897e-181 2.44462e-179 7.1512e-178 1.89948e-176 4.54502e-175 9.70324e-174 1.82669e-172 2.98781e-171 4.16554e-170 4.82502e-169 4.47957e-168 3.15912e-167 1.55009e-166 4.49204e-166 5.4071e-166 4.36282e-166 5.47948e-166 4.43182e-166 4.16995e-166 3.28851e-166 5.94674e-166 8.21797e-166 8.01567e-166 7.05927e-166 5.27533e-166 5.82608e-166 7.95158e-166 8.18497e-166 7.60682e-166 5.20762e-166 6.97246e-166 7.44962e-166 6.28104e-166 3.97931e-166 3.77789e-166 5.69495e-166 6.20942e-166 7.86029e-166 6.87674e-166 5.25923e-166 5.71178e-166 4.21895e-166 2.9017e-166 3.52326e-166 5.53529e-166 3.95817e-166 4.51193e-166 6.75771e-166 6.31255e-166 4.57474e-166 4.51287e-166 2.48748e-166 2.31104e-166 3.21412e-166 3.9055e-166 6.50303e-166 5.31944e-166 4.92103e-166 6.14496e-166 6.55482e-166 7.32085e-166 7.58773e-166 5.93027e-166 6.93396e-166 5.89812e-166 5.84788e-166 3.25798e-166 2.39573e-166 3.50687e-166 2.76346e-166 2.20396e-166 4.26296e-166 6.41046e-166 5.53343e-166 6.2036e-166 5.17419e-166 3.15382e-166 2.56086e-166 4.23323e-166 6.51099e-166 6.74325e-166 4.57193e-166 2.65974e-166 3.52844e-166 5.26137e-166 5.33973e-166 3.53311e-166 4.62484e-166 3.79069e-166 2.22955e-166 2.80034e-166 5.04757e-166 2.6166e-166 3.12183e-166 7.07069e-166 7.58964e-166 6.73302e-166 5.08142e-166 2.64109e-166 2.41724e-166 4.84882e-166 7.63046e-166 7.02039e-166 5.65965e-166 5.00015e-166 6.73592e-166 8.57363e-166 8.47688e-166 8.02184e-166 8.32858e-166 7.78856e-166 5.43638e-166 6.6034e-166 5.3121e-166 1.81321e-166 3.67594e-167 5.19619e-168 5.58531e-169 4.81472e-170 3.44952e-171 2.10708e-172 1.11844e-173 5.23555e-175 2.18692e-176 8.22953e-178 2.8121e-179 8.78407e-181 2.52253e-182 6.69237e-184 1.6473e-185 3.77606e-187 8.08733e-189 1.6231e-190 3.0605e-192 5.4346e-194 9.10728e-196 1.44307e-197 2.1658e-199 3.08368e-201 4.17125e-203 5.36764e-205 6.57882e-207 7.68852e-209 8.57653e-211 9.14037e-213 9.31485e-215 9.08438e-217 8.4848e-219 7.59468e-221 6.51886e-223 5.36881e-225 4.24481e-227 3.22347e-229 2.35217e-231 1.64994e-233 1.11297e-235 7.22207e-238 4.50955e-240 2.7103e-242 1.56825e-244 8.73822e-247 4.6894e-249 2.42419e-251 1.20733e-253 5.79348e-256 2.6788e-258 1.19358e-260 5.12478e-263 0 
0 0 0 0 0 0 0 0 0 0 0 0 0 0 0 0 0 0 0 0 0 0 4.99006e-322 2.92487e-319 1.6386e-316 8.78656e-314 4.51285e-311 2.2216e-308 1.04892e-305 4.75261e-303 2.06761e-300 8.64108e-298 3.47077e-295 1.34037e-292 4.97883e-290 1.77944e-287 6.12109e-285 2.02715e-282 6.4649e-280 1.98588e-277 5.87686e-275 1.67575e-272 4.60472e-270 1.21949e-267 3.11297e-265 7.65977e-263 1.81685e-260 4.15425e-258 9.15647e-256 1.94541e-253 3.98396e-251 7.86326e-249 1.49563e-246 2.74107e-244 4.83972e-242 8.23076e-240 1.34798e-237 2.12543e-235 3.22554e-233 4.71e-231 6.61533e-229 8.93369e-227 1.15952e-224 1.44577e-222 1.73093e-220 1.98878e-218 2.19163e-216 2.31499e-214 2.34225e-212 2.26829e-210 2.10085e-208 1.85928e-206 1.57086e-204 1.26568e-202 9.71459e-201 7.09425e-199 4.92262e-197 3.24089e-195 2.02125e-193 1.19209e-191 6.6359e-190 3.47911e-188 1.71394e-186 7.91306e-185 3.41382e-183 1.37168e-181 5.11394e-180 1.76157e-178 5.57899e-177 1.6153e-175 4.24709e-174 1.00606e-172 2.12661e-171 3.96437e-170 6.4218e-169 8.86815e-168 1.01764e-166 9.36178e-166 6.54428e-165 3.1849e-164 9.16908e-164 1.10415e-163 8.94177e-164 1.11887e-163 9.07021e-164 8.52284e-164 6.75722e-164 1.21614e-163 1.67916e-163 1.63918e-163 1.44329e-163 1.08087e-163 1.19293e-163 1.62503e-163 1.67378e-163 1.55472e-163 1.06894e-163 1.42525e-163 1.52243e-163 1.28369e-163 8.15587e-164 7.74451e-164 1.16364e-163 1.27111e-163 1.60571e-163 1.40609e-163 1.07743e-163 1.16649e-163 8.62881e-164 5.9501e-164 7.21757e-164 1.12914e-163 8.1138e-164 9.24235e-164 1.38e-163 1.29002e-163 9.3699e-164 9.21243e-164 5.10338e-164 4.73542e-164 6.57129e-164 8.00519e-164 1.32709e-163 1.08869e-163 1.00777e-163 1.25611e-163 1.34106e-163 1.49716e-163 1.55063e-163 1.21538e-163 1.41667e-163 1.20728e-163 1.19394e-163 6.67804e-164 4.91644e-164 7.1548e-164 5.65205e-164 4.52929e-164 8.71877e-164 1.30863e-163 1.13312e-163 1.26745e-163 1.05741e-163 6.46196e-164 5.25578e-164 8.66177e-164 1.32997e-163 1.37728e-163 9.35293e-164 5.46363e-164 7.22315e-164 1.07459e-163 1.09051e-163 7.25198e-164 9.44209e-164 7.74509e-164 4.57784e-164 5.74257e-164 1.02858e-163 5.37902e-164 6.41694e-164 1.4436e-163 1.55139e-163 1.37651e-163 1.03853e-163 5.41966e-164 4.96594e-164 9.92016e-164 1.55803e-163 1.43536e-163 1.15806e-163 1.02458e-163 1.37785e-163 1.75231e-163 1.73387e-163 1.64166e-163 1.70315e-163 1.59189e-163 1.1152e-163 1.34874e-163 1.08468e-163 3.72665e-164 7.61694e-165 1.08621e-165 1.17825e-166 1.02523e-167 7.41563e-169 4.57374e-170 2.45167e-171 1.15911e-172 4.89057e-174 1.85917e-175 6.41862e-177 2.02593e-178 5.87944e-180 1.57652e-181 3.92254e-183 9.0899e-185 1.96837e-186 3.99468e-188 7.61766e-190 1.36819e-191 2.31939e-193 3.71826e-195 5.64675e-197 8.13652e-199 1.11401e-200 1.45119e-202 1.80084e-204 2.13119e-206 2.40777e-208 2.59934e-210 2.68376e-212 2.65221e-214 2.51059e-216 2.27796e-218 1.9824e-220 1.65563e-222 1.3277e-224 1.02284e-226 7.57329e-229 5.39154e-231 3.69193e-233 2.43252e-235 1.54261e-237 9.41834e-240 5.53754e-242 3.13604e-244 1.711e-246 8.99482e-249 4.55692e-251 2.22502e-253 1.04717e-255 4.75061e-258 2.07748e-260 0 
0 0 0 0 0 0 0 0 0 0 0 0 0 0 0 0 0 0 0 0 0 5.82997e-322 3.48716e-319 1.97905e-316 1.07517e-313 5.5958e-311 2.79195e-308 1.33626e-305 6.13861e-303 2.7082e-300 1.14799e-297 4.67784e-295 1.83309e-292 6.91064e-290 2.50729e-287 8.75748e-285 2.94556e-282 9.54294e-280 2.97866e-277 8.95929e-275 2.59725e-272 7.25781e-270 1.95526e-267 5.07867e-265 1.27197e-262 3.07187e-260 7.15389e-258 1.60655e-255 3.47893e-253 7.26407e-251 1.46239e-248 2.83828e-246 5.31011e-244 9.57508e-242 1.66379e-239 2.78537e-237 4.49157e-235 6.97484e-233 1.04272e-230 1.50022e-228 2.07659e-226 2.76431e-224 3.53737e-222 4.34944e-220 5.13605e-218 5.82148e-216 6.32983e-214 6.59823e-212 6.58934e-210 6.29957e-208 5.76081e-206 5.03476e-204 4.2013e-202 3.34389e-200 2.53569e-198 1.82973e-196 1.25472e-194 8.16483e-193 5.03379e-191 2.93518e-189 1.61559e-187 8.37646e-186 4.08136e-184 1.8639e-182 7.95504e-181 3.16249e-179 1.1667e-177 3.97722e-176 1.2467e-174 3.57303e-173 9.3004e-172 2.18127e-170 4.56565e-169 8.42888e-168 1.35235e-166 1.84997e-165 2.10328e-164 1.91748e-163 1.32876e-162 6.4145e-162 1.83474e-161 2.21034e-161 1.79649e-161 2.23969e-161 1.81973e-161 1.7077e-161 1.36105e-161 2.43813e-161 3.36348e-161 3.28606e-161 2.89279e-161 2.17098e-161 2.3945e-161 3.25566e-161 3.3554e-161 3.11512e-161 2.15084e-161 2.85604e-161 3.05004e-161 2.57193e-161 1.63865e-161 1.55629e-161 2.33086e-161 2.55078e-161 3.21563e-161 2.81844e-161 2.16377e-161 2.33539e-161 1.73005e-161 1.19604e-161 1.4494e-161 2.25801e-161 1.63043e-161 1.85591e-161 2.76264e-161 2.58436e-161 1.88128e-161 1.84361e-161 1.02636e-161 9.51192e-162 1.31707e-161 1.60847e-161 2.65497e-161 2.18423e-161 2.02312e-161 2.51712e-161 2.68964e-161 3.00151e-161 3.10653e-161 2.44173e-161 2.83746e-161 2.42247e-161 2.38967e-161 1.34184e-161 9.89023e-162 1.43102e-161 1.13324e-161 9.12411e-162 1.74808e-161 2.61886e-161 2.27462e-161 2.53855e-161 2.1184e-161 1.29792e-161 1.05739e-161 1.7374e-161 2.66319e-161 2.75765e-161 1.87568e-161 1.10018e-161 1.44954e-161 2.15154e-161 2.1833e-161 1.45912e-161 1.88978e-161 1.55131e-161 9.21399e-162 1.15437e-161 2.05482e-161 1.08393e-161 1.29295e-161 2.88939e-161 3.10871e-161 2.75873e-161 2.08073e-161 1.09021e-161 1.00006e-161 1.98958e-161 3.11867e-161 2.87687e-161 2.32292e-161 2.05809e-161 2.76294e-161 3.51095e-161 3.47666e-161 3.29349e-161 3.4143e-161 3.18964e-161 2.24255e-161 2.70058e-161 2.17124e-161 7.50795e-162 1.54698e-162 2.22532e-163 2.4358e-164 2.13918e-165 1.56195e-166 9.72632e-168 5.26447e-169 2.51354e-170 1.07113e-171 4.11313e-173 1.43455e-174 4.57479e-176 1.34154e-177 3.63529e-179 9.14176e-181 2.14139e-182 4.68784e-184 9.61899e-186 1.85484e-187 3.36917e-189 5.77698e-191 9.36859e-193 1.43946e-194 2.09879e-196 2.9081e-198 3.83441e-200 4.8169e-202 5.77167e-204 6.6031e-206 7.2197e-208 7.55084e-210 7.56011e-212 7.25172e-214 6.66857e-216 5.88275e-218 4.98123e-220 4.05078e-222 3.16519e-224 2.3775e-226 1.71745e-228 1.19358e-230 7.98327e-233 5.14051e-235 3.18751e-237 1.90383e-239 1.09556e-241 6.07521e-244 3.24697e-246 1.67283e-248 8.30871e-251 3.97893e-253 1.8373e-255 8.18069e-258 0 
0 0 0 0 0 0 0 0 0 0 0 0 0 0 0 0 0 0 0 0 6.7687e-322 4.06087e-319 2.33422e-316 1.2846e-313 6.77372e-311 3.42471e-308 1.66126e-305 7.73613e-303 3.46038e-300 1.48749e-297 6.14782e-295 2.44403e-292 9.34934e-290 3.44271e-287 1.22069e-284 4.16891e-282 1.37173e-279 4.34957e-277 1.32937e-274 3.91693e-272 1.11279e-269 3.04867e-267 8.05524e-265 2.05284e-262 5.04624e-260 1.19655e-257 2.73682e-255 6.0383e-253 1.28504e-250 2.63774e-248 5.22181e-246 9.96871e-244 1.83497e-241 3.25629e-239 5.56986e-237 9.18122e-235 1.45811e-232 2.23049e-230 3.28551e-228 4.65862e-226 6.35638e-224 8.3424e-222 1.05273e-219 1.27669e-217 1.48723e-215 1.66326e-213 1.78473e-211 1.83628e-209 1.81033e-207 1.70884e-205 1.54319e-203 1.33207e-201 1.09803e-199 8.63427e-198 6.46961e-196 4.6136e-194 3.12702e-192 2.01151e-190 1.22608e-188 7.06907e-187 3.84786e-185 1.97317e-183 9.50996e-182 4.29654e-180 1.81431e-178 7.13712e-177 2.60572e-175 8.79169e-174 2.7279e-172 7.73972e-171 1.99462e-169 4.63222e-168 9.60182e-167 1.75567e-165 2.79023e-164 3.78144e-163 4.25994e-162 3.84897e-161 2.64431e-160 1.26633e-159 3.59898e-159 4.33753e-159 3.53801e-159 4.39498e-159 3.57881e-159 3.35426e-159 2.68721e-159 4.79163e-159 6.60451e-159 6.45767e-159 5.68372e-159 4.27445e-159 4.71149e-159 6.39397e-159 6.59386e-159 6.11865e-159 4.24225e-159 5.6104e-159 5.98998e-159 5.05136e-159 3.22733e-159 3.06569e-159 4.5769e-159 5.01771e-159 6.31276e-159 5.53805e-159 4.25962e-159 4.58348e-159 3.40026e-159 2.35672e-159 2.85315e-159 4.42659e-159 3.21157e-159 3.65321e-159 5.4216e-159 5.0753e-159 3.70262e-159 3.61679e-159 2.02336e-159 1.87294e-159 2.58778e-159 3.16803e-159 5.2069e-159 4.29574e-159 3.9813e-159 4.94462e-159 5.28798e-159 5.89877e-159 6.10099e-159 4.80865e-159 5.57119e-159 4.76486e-159 4.6887e-159 2.64297e-159 1.95026e-159 2.80578e-159 2.22732e-159 1.80165e-159 3.43569e-159 5.13768e-159 4.47591e-159 4.98418e-159 4.16032e-159 2.55548e-159 2.0853e-159 3.41619e-159 5.22773e-159 5.41266e-159 3.6874e-159 2.17158e-159 2.85155e-159 4.22289e-159 4.28499e-159 2.87774e-159 3.70775e-159 3.04595e-159 1.81788e-159 2.27466e-159 4.02416e-159 2.14103e-159 2.55366e-159 5.66925e-159 6.10649e-159 5.41989e-159 4.08667e-159 2.14971e-159 1.97417e-159 3.91159e-159 6.11955e-159 5.65236e-159 4.5676e-159 4.05252e-159 5.43116e-159 6.89592e-159 6.83376e-159 6.47705e-159 6.70968e-159 6.26508e-159 4.42044e-159 5.30084e-159 4.26057e-159 1.48266e-159 3.07942e-160 4.46802e-161 4.93454e-162 4.37353e-163 3.22335e-164 2.02631e-165 1.10735e-166 5.33878e-168 2.2976e-169 8.9111e-171 3.13943e-172 1.01142e-173 2.99665e-175 8.20533e-177 2.08526e-178 4.93687e-180 1.09246e-181 2.26616e-183 4.41825e-185 8.1153e-187 1.40727e-188 2.30834e-190 3.58785e-192 5.29261e-194 7.4206e-196 9.90193e-198 1.25905e-199 1.5272e-201 1.769e-203 1.95863e-205 2.07469e-207 2.10417e-209 2.04486e-211 1.90546e-213 1.70361e-215 1.46227e-217 1.20563e-219 9.55308e-222 7.27811e-224 5.33363e-226 3.7612e-228 2.55319e-230 1.66891e-232 1.05076e-234 6.37396e-237 3.72608e-239 2.09952e-241 1.1405e-243 5.97368e-246 3.0173e-248 1.46984e-250 6.90611e-253 3.12986e-255 0 