# vtk DataFile Version 3.0
Gray-Scott Simulation Output
ASCII
DATASET STRUCTURED_POINTS
DIMENSIONS 256 256 1
SPACING 1.0 1.0 1.0
ORIGIN 0 0 0
POINT_DATA 65536
SCALARS u double
LOOKUP_TABLE default
0 0 0 0 0 0 0 0 0 0 0 0 0 0 0 0 0 0 0 0 0 0 0 0 0 0 0 0 0 0 0 0 0 0 0 0 0 0 0 0 0 0 0 0 0 0 0 0 0 0 0 0 0 0 0 0 0 0 0 0 0 0 0 0 0 0 0 0 0 0 0 0 0 0 0 0 0 0 0 0 0 0 0 0 0 0 0 0 0 0 0 0 0 0 0 0 0 0 0 0 0 0 0 0 0 0 0 0 0 0 0 0 0 0 0 0 0 0 0 0 0 0 0 0 0 0 0 0 0 0 0 0 0 0 0 0 0 0 0 0 0 0 0 0 0 0 0 0 0 0 0 0 0 0 0 0 0 0 0 0 0 0 0 0 0 0 0 0 0 0 0 0 0 0 0 0 0 0 0 0 0 0 0 0 0 0 0 0 0 0 0 0 0 0 0 0 0 0 0 0 0 0 0 0 0 0 0 0 0 0 0 0 0 0 0 0 0 0 0 0 0 0 0 0 0 0 0 0 0 0 0 0 0 0 0 0 0 0 0 0 0 0 0 0 0 0 0 0 0 0 0 0 0 0 0 0 
0 1.88338e-92 9.27867e-92 4.34764e-91 2.01474e-90 9.2486e-90 4.20552e-89 1.89417e-88 8.44965e-88 3.73288e-87 1.63305e-86 7.07403e-86 3.03397e-85 1.28823e-84 5.41476e-84 2.25282e-83 9.27676e-83 3.7805e-82 1.52456e-81 6.08331e-81 2.40157e-80 9.37923e-80 3.62336e-79 1.38448e-78 5.23172e-78 1.95498e-77 7.22322e-77 2.63855e-76 9.52791e-76 3.40078e-75 1.19966e-74 4.18204e-74 1.4405e-73 4.90215e-73 1.64798e-72 5.47211e-72 1.7945e-71 5.8111e-71 1.858e-70 5.86473e-70 1.82728e-69 5.619e-69 1.70509e-68 5.10519e-68 1.50795e-67 4.3935e-67 1.26246e-66 3.57721e-66 9.99363e-66 2.75224e-65 7.47078e-65 1.99845e-64 5.2674e-64 1.36775e-63 3.49822e-63 8.8115e-63 2.18544e-62 5.33629e-62 1.28256e-61 3.03371e-61 7.06082e-61 1.61675e-60 3.64132e-60 8.06539e-60 1.75657e-59 3.76095e-59 7.91493e-59 1.63695e-58 3.32646e-58 6.64072e-58 1.30213e-57 2.50744e-57 4.74096e-57 8.80017e-57 1.60338e-56 2.86708e-56 5.03077e-56 8.66091e-56 1.46276e-55 2.42333e-55 3.93767e-55 6.27507e-55 9.80665e-55 1.50288e-54 2.25852e-54 3.32826e-54 4.8097e-54 6.81641e-54 9.47486e-54 1.2919e-53 1.72825e-53 2.26883e-53 2.92375e-53 3.69969e-53 4.59885e-53 5.61808e-53 6.7485e-53 7.97549e-53 9.27928e-53 1.0636e-52 1.20193e-52 1.34013e-52 1.47552e-52 1.60557e-52 1.72811e-52 1.84131e-52 1.9438e-52 2.03462e-52 2.11319e-52 2.17934e-52 2.23317e-52 2.27507e-52 2.30565e-52 2.32568e-52 2.33609e-52 2.3379e-52 2.33216e-52 2.31996e-52 2.30235e-52 2.28031e-52 2.25477e-52 2.22656e-52 2.19641e-52 2.16503e-52 2.13305e-52 2.10109e-52 2.06977e-52 2.03968e-52 2.01144e-52 1.98562e-52 1.9628e-52 1.9435e-52 1.92821e-52 1.91732e-52 1.91118e-52 1.90998e-52 1.91379e-52 1.92248e-52 1.93564e-52 1.95262e-52 1.97243e-52 1.9938e-52 2.01522e-52 2.03504e-52 2.05161e-52 2.06342e-52 2.06927e-52 2.06841e-52 2.06063e-52 2.04631e-52 2.02638e-52 2.00223e-52 1.97554e-52 1.94813e-52 1.92173e-52 1.89783e-52 1.87753e-52 1.86145e-52 1.84973e-52 1.84207e-52 1.8378e-52 1.83602e-52 1.83572e-52 1.8359e-52 1.83567e-52 1.83436e-52 1.83154e-52 1.82706e-52 1.82106e-52 1.81391e-52 1.80622e-52 1.79877e-52 1.79241e-52 1.78804e-52 1.7865e-52 1.78851e-52 1.79463e-52 1.80521e-52 1.8204e-52 1.84014e-52 1.8642e-52 1.89219e-52 1.92356e-52 1.95765e-52 1.99362e-52 2.03044e-52 2.06681e-52 2.10111e-52 2.13142e-52 2.15546e-52 2.17072e-52 2.17453e-52 2.16426e-52 2.13756e-52 2.09253e-52 2.02803e-52 1.94379e-52 1.84057e-52 1.72016e-52 1.58535e-52 1.43973e-52 1.28743e-52 1.13286e-52 9.80391e-53 8.34006e-53 6.97102e-53 5.72285e-53 4.61289e-53 3.64967e-53 2.83366e-53 2.15857e-53 1.61303e-53 1.18226e-53 8.49843e-54 5.99086e-54 4.14138e-54 2.80737e-54 1.86618e-54 1.21652e-54 7.77706e-55 4.87605e-55 2.99855e-55 1.80878e-55 1.07037e-55 6.21449e-56 3.54044e-56 1.97945e-56 1.08625e-56 5.85162e-57 3.09493e-57 1.6074e-57 8.19903e-58 4.10811e-58 2.02225e-58 9.78174e-59 4.65008e-59 2.17291e-59 9.9825e-60 4.50949e-60 2.00347e-60 8.75549e-61 3.76442e-61 1.59262e-61 6.63123e-62 2.71783e-62 1.09665e-62 4.35721e-63 1.70495e-63 6.57135e-64 2.49519e-64 9.33522e-65 3.44131e-65 1.24871e-65 4.41697e-66 1.39341e-66 0 
0 9.26759e-92 4.56578e-91 2.13937e-90 9.91414e-90 4.5511e-89 2.06951e-88 9.32124e-88 4.15818e-87 1.83704e-86 8.03686e-86 3.48152e-85 1.49324e-84 6.34059e-84 2.66522e-83 1.10892e-82 4.5666e-82 1.8611e-81 7.50571e-81 2.99513e-80 1.1825e-79 4.61854e-79 1.78436e-78 6.81856e-78 2.57685e-77 9.62997e-77 3.55841e-76 1.29997e-75 4.69475e-75 1.67587e-74 5.91251e-74 2.06136e-73 7.10124e-73 2.41692e-72 8.12619e-72 2.69868e-71 8.85121e-71 2.86671e-70 9.16727e-70 2.89409e-69 9.01866e-69 2.77377e-68 8.41854e-68 2.52104e-67 7.44795e-67 2.17043e-66 6.23791e-66 1.76788e-65 4.93995e-65 1.36075e-64 3.69448e-64 9.88501e-64 2.60603e-63 6.76845e-63 1.73155e-62 4.36255e-62 1.08227e-61 2.64328e-61 6.35462e-61 1.50348e-60 3.50017e-60 8.01657e-60 1.806e-59 4.00127e-59 8.71667e-59 1.8668e-58 3.92972e-58 8.12947e-58 1.65243e-57 3.29965e-57 6.47171e-57 1.24653e-56 2.35746e-56 4.37699e-56 7.97672e-56 1.42668e-55 2.50389e-55 4.31159e-55 7.28339e-55 1.20686e-54 1.96138e-54 3.12617e-54 4.8863e-54 7.48935e-54 1.12563e-53 1.65894e-53 2.39756e-53 3.39809e-53 4.72359e-53 6.44079e-53 8.61622e-53 1.13111e-52 1.45755e-52 1.84425e-52 2.29227e-52 2.8e-52 3.36296e-52 3.97381e-52 4.62267e-52 5.29762e-52 5.98542e-52 6.67232e-52 7.34487e-52 7.99063e-52 8.5987e-52 9.16017e-52 9.6682e-52 1.01181e-51 1.05072e-51 1.08346e-51 1.11008e-51 1.13079e-51 1.14589e-51 1.15577e-51 1.16089e-51 1.16175e-51 1.15889e-51 1.15282e-51 1.14408e-51 1.13316e-51 1.1205e-51 1.10653e-51 1.0916e-51 1.07605e-51 1.06022e-51 1.04439e-51 1.02888e-51 1.01399e-51 1e-51 9.8722e-52 9.75923e-52 9.66371e-52 9.58799e-52 9.53413e-52 9.50374e-52 9.49787e-52 9.51681e-52 9.55988e-52 9.62517e-52 9.70934e-52 9.80755e-52 9.91349e-52 1.00197e-51 1.0118e-51 1.02001e-51 1.02587e-51 1.02877e-51 1.02835e-51 1.02449e-51 1.0174e-51 1.00752e-51 9.95553e-52 9.8233e-52 9.68752e-52 9.5568e-52 9.4385e-52 9.33805e-52 9.25854e-52 9.20068e-52 9.16292e-52 9.14197e-52 9.13334e-52 9.13199e-52 9.13297e-52 9.1319e-52 9.12541e-52 9.1114e-52 9.08912e-52 9.05924e-52 9.02368e-52 8.98543e-52 8.94834e-52 8.91668e-52 8.89487e-52 8.88709e-52 8.89693e-52 8.92715e-52 8.97952e-52 9.05475e-52 9.15256e-52 9.27177e-52 9.41042e-52 9.56589e-52 9.73484e-52 9.91315e-52 1.00957e-51 1.0276e-51 1.04462e-51 1.05966e-51 1.0716e-51 1.07919e-51 1.0811e-51 1.07604e-51 1.06282e-51 1.04051e-51 1.00852e-51 9.6672e-52 9.15478e-52 8.55684e-52 7.88714e-52 7.16346e-52 6.4064e-52 5.63788e-52 4.87956e-52 4.15136e-52 3.47019e-52 2.84905e-52 2.2966e-52 1.81712e-52 1.41088e-52 1.07477e-52 8.03135e-53 5.88642e-53 4.23119e-53 2.98257e-53 2.06166e-53 1.39745e-53 9.28857e-54 6.05434e-54 3.86998e-54 2.42607e-54 1.4917e-54 8.99677e-55 5.32306e-55 3.08998e-55 1.76006e-55 9.83851e-56 5.39793e-56 2.90726e-56 1.53733e-56 7.9826e-57 4.07088e-57 2.03925e-57 1.00361e-57 4.85341e-58 2.3067e-58 1.07764e-58 4.94961e-59 2.23542e-59 9.92921e-60 4.33824e-60 1.86481e-60 7.88768e-61 3.28349e-61 1.34545e-61 5.42777e-62 2.1561e-62 8.43495e-63 3.25039e-63 1.23395e-63 4.61563e-64 1.70117e-64 6.17169e-65 2.18267e-65 6.88464e-66 0 
0 4.33676e-91 2.13656e-90 1.00113e-89 4.63943e-89 2.12977e-88 9.68482e-88 4.36223e-87 1.94603e-86 8.59763e-86 3.7615e-85 1.62952e-84 6.9894e-84 2.96798e-83 1.24763e-82 5.19134e-82 2.13795e-81 8.7137e-81 3.51442e-80 1.40252e-79 5.53771e-79 2.16307e-78 8.3577e-78 3.19402e-77 1.20719e-76 4.51189e-76 1.66739e-75 6.09207e-75 2.20037e-74 7.85558e-74 2.77182e-73 9.66509e-73 3.33004e-72 1.13355e-71 3.81182e-71 1.26609e-70 4.15326e-70 1.34538e-69 4.30306e-69 1.35872e-68 4.23488e-68 1.30273e-67 3.95464e-67 1.18451e-66 3.50017e-66 1.02021e-65 2.9328e-65 8.31375e-65 2.32364e-64 6.40219e-64 1.73864e-63 4.6531e-63 1.22703e-62 3.18771e-62 8.15717e-62 2.05572e-61 5.10126e-61 1.24625e-60 2.99692e-60 7.09261e-60 1.65167e-59 3.78398e-59 8.52715e-59 1.88978e-58 4.11806e-58 8.82201e-58 1.85763e-57 3.84403e-57 7.81583e-57 1.56115e-56 3.06282e-56 5.90102e-56 1.11632e-55 2.07319e-55 3.77922e-55 6.76107e-55 1.1869e-54 2.04427e-54 3.45409e-54 5.72465e-54 9.30554e-54 1.48345e-53 2.31908e-53 3.55506e-53 5.34386e-53 7.87668e-53 1.13847e-52 1.61369e-52 2.24325e-52 3.05884e-52 4.092e-52 5.37172e-52 6.92169e-52 8.75745e-52 1.08838e-51 1.32929e-51 1.59633e-51 1.88597e-51 2.19351e-51 2.51328e-51 2.83897e-51 3.16407e-51 3.4822e-51 3.78747e-51 4.07475e-51 4.33985e-51 4.57958e-51 4.79176e-51 4.97513e-51 5.12931e-51 5.25464e-51 5.35205e-51 5.42301e-51 5.46938e-51 5.49331e-51 5.4972e-51 5.48354e-51 5.45484e-51 5.41355e-51 5.36199e-51 5.30229e-51 5.23637e-51 5.16597e-51 5.0927e-51 5.01805e-51 4.94346e-51 4.87036e-51 4.80015e-51 4.73424e-51 4.67401e-51 4.62077e-51 4.57576e-51 4.54009e-51 4.51472e-51 4.50042e-51 4.49767e-51 4.50663e-51 4.52697e-51 4.55779e-51 4.59752e-51 4.64388e-51 4.69388e-51 4.74402e-51 4.79041e-51 4.8292e-51 4.85685e-51 4.87056e-51 4.86856e-51 4.85039e-51 4.81692e-51 4.77032e-51 4.71386e-51 4.6515e-51 4.58748e-51 4.52586e-51 4.47012e-51 4.42281e-51 4.3854e-51 4.35821e-51 4.34051e-51 4.33073e-51 4.32675e-51 4.32618e-51 4.3267e-51 4.32622e-51 4.32316e-51 4.31653e-51 4.30598e-51 4.29182e-51 4.27497e-51 4.25685e-51 4.23927e-51 4.22425e-51 4.21388e-51 4.21014e-51 4.21472e-51 4.22893e-51 4.2536e-51 4.28907e-51 4.3352e-51 4.39142e-51 4.45683e-51 4.53017e-51 4.60989e-51 4.69402e-51 4.78017e-51 4.8653e-51 4.94566e-51 5.01673e-51 5.07322e-51 5.10919e-51 5.1184e-51 5.09467e-51 5.03241e-51 4.92716e-51 4.77614e-51 4.57868e-51 4.33649e-51 4.05376e-51 3.73697e-51 3.39453e-51 3.03616e-51 2.67226e-51 2.3131e-51 1.96811e-51 1.64533e-51 1.35093e-51 1.08904e-51 8.61718e-52 6.6909e-52 5.09701e-52 3.80878e-52 2.79151e-52 2.00647e-52 1.41428e-52 9.77529e-53 6.62534e-53 4.40325e-53 2.8697e-53 1.83408e-53 1.1496e-53 7.06727e-54 4.26165e-54 2.52098e-54 1.46311e-54 8.33214e-55 4.65655e-55 2.55425e-55 1.37537e-55 7.27105e-56 3.77458e-56 1.92444e-56 9.63779e-57 4.742e-57 2.29262e-57 1.08934e-57 5.08784e-58 2.33624e-58 1.05486e-58 4.68422e-59 2.04609e-59 8.79295e-60 3.71826e-60 1.54746e-60 6.33934e-61 2.55677e-61 1.01539e-61 3.97142e-62 1.53002e-62 5.80712e-63 2.17169e-63 8.00237e-64 2.90258e-64 1.02632e-64 3.23671e-65 0 
0 2.00701e-90 9.88787e-90 4.63321e-89 2.14716e-88 9.8569e-88 4.48239e-87 2.01901e-86 9.00726e-86 3.97958e-85 1.74115e-84 7.54319e-84 3.2356e-83 1.37404e-82 5.7763e-82 2.40363e-81 9.89953e-81 4.03506e-80 1.62755e-79 6.49569e-79 2.56497e-78 1.00198e-77 3.87186e-77 1.47983e-76 5.59368e-76 2.09087e-75 7.72781e-75 2.82382e-74 1.02005e-73 3.6422e-73 1.28532e-72 4.48244e-72 1.54462e-71 5.25876e-71 1.76866e-70 5.87559e-70 1.92774e-69 6.24574e-69 1.99801e-68 6.31004e-68 1.96712e-67 6.05246e-67 1.83771e-66 5.50559e-66 1.62723e-65 4.74408e-65 1.3641e-64 3.8678e-64 1.08129e-63 2.97997e-63 8.09479e-63 2.16697e-62 5.71588e-62 1.48534e-61 3.80195e-61 9.58414e-61 2.37899e-60 5.81364e-60 1.39844e-59 3.31059e-59 7.71176e-59 1.7673e-58 3.98382e-58 8.83164e-58 1.92511e-57 4.1254e-57 8.68943e-57 1.79868e-56 3.65826e-56 7.30931e-56 1.43444e-55 2.76451e-55 5.23128e-55 9.71807e-55 1.772e-54 3.17099e-54 5.56809e-54 9.59267e-54 1.62121e-53 2.68752e-53 4.36955e-53 6.96713e-53 1.08937e-52 1.67022e-52 2.51099e-52 3.70157e-52 5.35068e-52 7.58473e-52 1.05444e-51 1.43785e-51 1.92351e-51 2.525e-51 3.25341e-51 4.11596e-51 5.11483e-51 6.2462e-51 7.49982e-51 8.85909e-51 1.03017e-50 1.1801e-50 1.33273e-50 1.48499e-50 1.6339e-50 1.77671e-50 1.91102e-50 2.03487e-50 2.1468e-50 2.2458e-50 2.33131e-50 2.40316e-50 2.46152e-50 2.50685e-50 2.53983e-50 2.56135e-50 2.57242e-50 2.57415e-50 2.5677e-50 2.55426e-50 2.53495e-50 2.51087e-50 2.483e-50 2.45223e-50 2.41939e-50 2.38521e-50 2.35039e-50 2.3156e-50 2.28151e-50 2.24876e-50 2.21803e-50 2.18994e-50 2.16511e-50 2.14413e-50 2.1275e-50 2.11567e-50 2.10901e-50 2.10774e-50 2.11194e-50 2.12144e-50 2.13584e-50 2.1544e-50 2.17605e-50 2.19941e-50 2.22282e-50 2.2445e-50 2.26262e-50 2.27554e-50 2.28195e-50 2.28102e-50 2.27254e-50 2.25691e-50 2.23517e-50 2.20881e-50 2.17971e-50 2.14983e-50 2.12109e-50 2.0951e-50 2.07306e-50 2.05564e-50 2.043e-50 2.03479e-50 2.03027e-50 2.02846e-50 2.02823e-50 2.02849e-50 2.02828e-50 2.02686e-50 2.02375e-50 2.01881e-50 2.01217e-50 2.00427e-50 1.99577e-50 1.98752e-50 1.98047e-50 1.97559e-50 1.97381e-50 1.97592e-50 1.98254e-50 1.99404e-50 2.01058e-50 2.03211e-50 2.05835e-50 2.08889e-50 2.12313e-50 2.16034e-50 2.19963e-50 2.23987e-50 2.27964e-50 2.3172e-50 2.35045e-50 2.37689e-50 2.39377e-50 2.39816e-50 2.38717e-50 2.35816e-50 2.30904e-50 2.2385e-50 2.1462e-50 2.03294e-50 1.90064e-50 1.75235e-50 1.59199e-50 1.42411e-50 1.25358e-50 1.08523e-50 9.2347e-51 7.72089e-51 6.33992e-51 5.11123e-51 4.04452e-51 3.14051e-51 2.39242e-51 1.78774e-51 1.31023e-51 9.41719e-52 6.63739e-52 4.58729e-52 3.10879e-52 2.06589e-52 1.34621e-52 8.60259e-53 5.3912e-53 3.31372e-53 1.99784e-53 1.18158e-53 6.85614e-54 3.90357e-54 2.18107e-54 1.19609e-54 6.43891e-55 3.40315e-55 1.76621e-55 9.0025e-56 4.50735e-56 2.21712e-56 1.07162e-56 5.09044e-57 2.37688e-57 1.09112e-57 4.92527e-58 2.18653e-58 9.54832e-59 4.10223e-59 1.73424e-59 7.21563e-60 2.9552e-60 1.19158e-60 4.73104e-61 1.84995e-61 7.12535e-62 2.70374e-62 1.01088e-62 3.7241e-63 1.35049e-63 4.77417e-64 1.50538e-64 0 
0 9.20052e-90 4.53285e-89 2.12402e-88 9.84347e-88 4.51892e-87 2.05502e-86 9.25673e-86 4.12978e-85 1.82469e-84 7.98377e-84 3.45897e-83 1.48378e-82 6.30141e-82 2.6492e-81 1.10246e-80 4.54088e-80 1.85101e-79 7.46667e-79 2.98027e-78 1.17693e-77 4.59802e-77 1.77694e-76 6.79225e-76 2.56771e-75 9.59903e-75 3.54821e-74 1.29672e-73 4.68479e-73 1.67298e-72 5.90476e-72 2.05955e-71 7.09819e-71 2.41702e-70 8.13045e-70 2.70146e-69 8.86493e-69 2.87271e-68 9.19156e-68 2.90343e-67 9.05315e-67 2.78609e-66 8.46126e-66 2.53548e-65 7.49562e-65 2.18582e-64 6.28656e-64 1.78296e-63 4.98576e-63 1.37441e-62 3.73445e-62 9.99983e-62 2.63842e-61 6.85821e-61 1.75597e-60 4.42786e-60 1.09942e-59 2.68751e-59 6.46668e-59 1.53136e-58 3.56831e-58 8.18009e-58 1.84453e-57 4.09041e-57 8.91911e-57 1.91193e-56 4.02844e-56 8.34139e-56 1.69707e-55 3.39186e-55 6.65857e-55 1.28366e-54 2.42981e-54 4.51517e-54 8.23541e-54 1.47414e-53 2.58921e-53 4.46185e-53 7.54261e-53 1.25066e-52 2.03385e-52 3.24359e-52 5.07256e-52 7.7786e-52 1.1696e-51 1.72438e-51 2.49288e-51 3.53401e-51 4.91331e-51 6.70007e-51 8.96316e-51 1.17657e-50 1.51591e-50 1.91767e-50 2.3828e-50 2.90947e-50 3.49286e-50 4.12516e-50 4.79595e-50 5.49272e-50 6.20166e-50 6.9085e-50 7.59935e-50 8.26145e-50 8.88374e-50 9.45722e-50 9.97512e-50 1.04329e-49 1.0828e-49 1.11598e-49 1.14291e-49 1.16381e-49 1.179e-49 1.1889e-49 1.19396e-49 1.19472e-49 1.1917e-49 1.18546e-49 1.17651e-49 1.16537e-49 1.15247e-49 1.13824e-49 1.12305e-49 1.10725e-49 1.09115e-49 1.07507e-49 1.05931e-49 1.04418e-49 1.02997e-49 1.01699e-49 1.00552e-49 9.95817e-50 9.88133e-50 9.82672e-50 9.79597e-50 9.79017e-50 9.80963e-50 9.85365e-50 9.92031e-50 1.00062e-49 1.01065e-49 1.02146e-49 1.0323e-49 1.04234e-49 1.05073e-49 1.05671e-49 1.05968e-49 1.05926e-49 1.05533e-49 1.0481e-49 1.03804e-49 1.02585e-49 1.01239e-49 9.98572e-50 9.85284e-50 9.73274e-50 9.63095e-50 9.5506e-50 9.49234e-50 9.45459e-50 9.43393e-50 9.42575e-50 9.42487e-50 9.4262e-50 9.42529e-50 9.41871e-50 9.40429e-50 9.38132e-50 9.35047e-50 9.31375e-50 9.27425e-50 9.23589e-50 9.20307e-50 9.18033e-50 9.17194e-50 9.18158e-50 9.21207e-50 9.26521e-50 9.34172e-50 9.44128e-50 9.5627e-50 9.70396e-50 9.8624e-50 1.00346e-49 1.02165e-49 1.04027e-49 1.05869e-49 1.0761e-49 1.09151e-49 1.10378e-49 1.11164e-49 1.11372e-49 1.10867e-49 1.09529e-49 1.07257e-49 1.03992e-49 9.97166e-50 9.44666e-50 8.83317e-50 8.14515e-50 7.40082e-50 6.62132e-50 5.82925e-50 5.047e-50 4.29522e-50 3.59149e-50 2.94936e-50 2.37794e-50 1.88176e-50 1.4612e-50 1.11315e-50 8.31799e-51 6.09606e-51 4.3813e-51 3.0878e-51 2.13389e-51 1.44598e-51 9.60778e-52 6.25991e-52 3.99961e-52 2.50611e-52 1.5401e-52 9.28339e-53 5.48933e-53 3.18448e-53 1.81267e-53 1.01256e-53 5.55146e-54 2.98774e-54 1.57869e-54 8.19106e-55 4.17391e-55 2.0892e-55 1.02737e-55 4.96427e-56 2.35747e-56 1.10046e-56 5.05028e-57 2.27902e-57 1.01147e-57 4.41571e-58 1.89658e-58 8.0157e-59 3.33416e-59 1.36515e-59 5.50303e-60 2.18434e-60 8.53908e-61 3.28811e-61 1.24737e-61 4.66257e-62 1.71728e-62 6.226e-63 2.2005e-63 6.93732e-64 0 
0 4.17787e-89 2.05836e-88 9.64529e-88 4.47008e-87 2.05217e-86 9.33272e-86 4.20403e-85 1.87565e-84 8.28769e-84 3.62638e-83 1.57121e-82 6.74034e-82 2.86271e-81 1.2036e-80 5.00911e-80 2.06334e-79 8.41153e-79 3.39337e-78 1.35456e-77 5.34978e-77 2.09026e-76 8.07884e-76 3.08843e-75 1.16767e-74 4.36572e-74 1.61397e-73 5.89916e-73 2.13155e-72 7.61308e-72 2.68743e-71 9.37509e-71 3.23165e-70 1.1006e-69 3.7029e-69 1.23057e-68 4.03893e-68 1.30908e-67 4.18942e-67 1.32363e-66 4.1281e-66 1.2707e-65 3.85996e-65 1.15694e-64 3.42108e-64 9.97878e-64 2.8707e-63 8.14386e-63 2.27791e-62 6.28118e-62 1.70716e-61 4.57261e-61 1.20682e-60 3.13789e-60 8.03669e-60 2.02715e-59 5.03491e-59 1.23117e-58 2.96338e-58 7.0198e-58 1.63626e-57 3.75225e-57 8.46377e-57 1.87754e-56 4.09535e-56 8.78187e-56 1.85097e-55 3.83395e-55 7.80281e-55 1.56004e-54 3.06351e-54 5.90785e-54 1.11864e-53 2.07934e-53 3.79375e-53 6.79282e-53 1.19345e-52 2.05717e-52 3.47848e-52 5.76917e-52 9.38414e-52 1.49691e-51 2.34143e-51 3.59114e-51 5.40053e-51 7.96326e-51 1.15135e-50 1.63234e-50 2.26957e-50 3.09501e-50 4.14044e-50 5.43493e-50 7.00207e-50 8.85706e-50 1.10041e-49 1.34346e-49 1.61257e-49 1.90413e-49 2.21329e-49 2.53427e-49 2.86066e-49 3.18589e-49 3.50356e-49 3.80781e-49 4.09356e-49 4.35671e-49 4.5942e-49 4.80396e-49 4.98488e-49 5.1367e-49 5.25983e-49 5.35531e-49 5.42465e-49 5.46971e-49 5.49269e-49 5.49595e-49 5.48197e-49 5.45322e-49 5.41213e-49 5.36097e-49 5.30182e-49 5.23659e-49 5.16699e-49 5.09458e-49 5.02082e-49 4.94715e-49 4.87495e-49 4.80561e-49 4.74054e-49 4.68107e-49 4.62852e-49 4.5841e-49 4.54892e-49 4.52391e-49 4.50985e-49 4.50722e-49 4.51616e-49 4.53637e-49 4.56696e-49 4.60638e-49 4.65238e-49 4.702e-49 4.75175e-49 4.79781e-49 4.83632e-49 4.86379e-49 4.87743e-49 4.8755e-49 4.85752e-49 4.82437e-49 4.77823e-49 4.72232e-49 4.6606e-49 4.59728e-49 4.5364e-49 4.4814e-49 4.43481e-49 4.39807e-49 4.37147e-49 4.35427e-49 4.34491e-49 4.34125e-49 4.34093e-49 4.3416e-49 4.34121e-49 4.33819e-49 4.33156e-49 4.32098e-49 4.30677e-49 4.28986e-49 4.27166e-49 4.25397e-49 4.23884e-49 4.22833e-49 4.22441e-49 4.22877e-49 4.24271e-49 4.26704e-49 4.3021e-49 4.34775e-49 4.40342e-49 4.4682e-49 4.54086e-49 4.61986e-49 4.70328e-49 4.78876e-49 4.8733e-49 4.95324e-49 5.02408e-49 5.08057e-49 5.11683e-49 5.1266e-49 5.1037e-49 5.04248e-49 4.93842e-49 4.78864e-49 4.59236e-49 4.35119e-49 4.06921e-49 3.75283e-49 3.4104e-49 3.05164e-49 2.68697e-49 2.3267e-49 1.98037e-49 1.65607e-49 1.3601e-49 1.09667e-49 8.67884e-50 6.73943e-50 5.13418e-50 3.83648e-50 2.81159e-50 2.02061e-50 1.42397e-50 9.8397e-51 6.66691e-51 4.42925e-51 2.88543e-51 1.84327e-51 1.15476e-51 7.09509e-52 4.27587e-52 2.52779e-52 1.46608e-52 8.34319e-53 4.65934e-53 2.55385e-53 1.37409e-53 7.25854e-54 3.76503e-54 1.91799e-54 9.59749e-55 4.71819e-55 2.27917e-55 1.08203e-55 5.04936e-56 2.31659e-56 1.04509e-56 4.6369e-57 2.02371e-57 8.68945e-58 3.67144e-58 1.52671e-58 6.24926e-59 2.51842e-59 9.99371e-60 3.90571e-60 1.50355e-60 5.70238e-61 2.13095e-61 7.84659e-62 2.84408e-62 1.00497e-62 3.1677e-63 0 
0 1.87907e-88 9.25799e-88 4.33832e-87 2.01064e-86 9.23093e-86 4.19812e-85 1.89117e-84 8.43792e-84 3.72853e-83 1.63155e-82 7.06945e-82 3.03291e-81 1.2882e-80 5.41652e-80 2.2544e-79 9.28703e-79 3.78633e-78 1.52761e-77 6.0985e-77 2.40882e-76 9.41273e-76 3.63842e-75 1.39108e-74 5.26007e-74 1.9669e-73 7.27244e-73 2.6585e-72 9.60741e-72 3.43193e-71 1.21167e-70 4.22762e-70 1.45754e-69 4.96483e-69 1.67069e-68 5.55321e-68 1.82302e-67 5.90993e-67 1.89174e-66 5.9782e-66 1.86488e-65 5.74174e-65 1.74457e-64 5.23026e-64 1.54699e-63 4.5135e-63 1.29879e-62 3.68554e-62 1.03117e-61 2.84418e-61 7.73245e-61 2.07175e-60 5.46952e-60 1.42259e-59 3.64464e-59 9.1961e-59 2.28481e-58 5.58881e-58 1.34566e-57 3.18874e-57 7.43525e-57 1.70563e-56 3.84864e-56 8.54055e-56 1.86354e-55 3.99749e-55 8.42852e-55 1.74643e-54 3.55555e-54 7.11117e-54 1.39693e-53 2.69483e-53 5.10428e-53 9.49101e-53 1.73218e-52 3.10247e-52 5.45243e-52 9.40113e-52 1.59008e-51 2.63788e-51 4.29182e-51 6.8476e-51 1.07131e-50 1.64341e-50 2.47185e-50 3.64533e-50 5.27113e-50 7.47388e-50 1.03922e-49 1.41723e-49 1.89595e-49 2.48865e-49 3.20607e-49 4.05508e-49 5.03751e-49 6.14924e-49 7.37977e-49 8.71235e-49 1.01247e-48 1.15902e-48 1.30796e-48 1.45628e-48 1.60105e-48 1.7396e-48 1.86963e-48 1.9893e-48 2.09721e-48 2.19246e-48 2.27455e-48 2.34338e-48 2.39916e-48 2.44238e-48 2.47372e-48 2.49406e-48 2.50438e-48 2.50576e-48 2.49932e-48 2.48621e-48 2.4675e-48 2.44423e-48 2.41735e-48 2.38771e-48 2.3561e-48 2.32321e-48 2.28972e-48 2.25627e-48 2.22349e-48 2.19201e-48 2.16247e-48 2.13547e-48 2.11162e-48 2.09146e-48 2.07549e-48 2.06415e-48 2.05777e-48 2.05659e-48 2.06066e-48 2.06986e-48 2.08377e-48 2.1017e-48 2.12261e-48 2.14518e-48 2.16781e-48 2.18876e-48 2.20628e-48 2.21878e-48 2.22499e-48 2.22412e-48 2.21595e-48 2.20089e-48 2.17992e-48 2.15452e-48 2.12647e-48 2.09771e-48 2.07006e-48 2.0451e-48 2.02397e-48 2.00732e-48 1.99528e-48 1.98752e-48 1.98332e-48 1.9817e-48 1.98159e-48 1.98192e-48 1.98176e-48 1.98039e-48 1.97736e-48 1.97254e-48 1.96605e-48 1.95833e-48 1.95001e-48 1.94194e-48 1.93502e-48 1.9302e-48 1.92839e-48 1.93034e-48 1.93666e-48 1.9477e-48 1.96363e-48 1.98437e-48 2.00967e-48 2.03911e-48 2.07214e-48 2.10805e-48 2.14598e-48 2.18485e-48 2.22332e-48 2.25971e-48 2.29199e-48 2.31776e-48 2.33436e-48 2.33892e-48 2.32863e-48 2.3009e-48 2.25366e-48 2.18559e-48 2.09629e-48 1.9865e-48 1.85806e-48 1.71387e-48 1.55773e-48 1.39408e-48 1.22767e-48 1.06321e-48 9.05063e-49 7.56939e-49 6.21719e-49 5.01337e-49 3.96771e-49 3.08117e-49 2.34731e-49 1.75399e-49 1.28538e-49 9.23721e-50 6.50916e-50 4.49744e-50 3.04689e-50 2.02397e-50 1.31831e-50 8.42018e-51 5.27403e-51 3.2398e-51 1.95205e-51 1.15373e-51 6.68984e-52 3.80609e-52 2.12498e-52 1.16441e-52 6.2633e-53 3.30759e-53 1.71515e-53 8.73476e-54 4.36948e-54 2.14741e-54 1.03701e-54 4.92161e-55 2.29599e-55 1.05305e-55 4.74916e-56 2.10648e-56 9.19059e-57 3.94507e-57 1.66635e-57 6.9272e-58 2.83466e-58 1.14202e-58 4.53051e-59 1.7701e-59 6.81234e-60 2.58294e-60 9.64973e-61 3.5523e-61 1.28724e-61 4.54745e-62 1.43309e-62 0 
0 8.37033e-88 4.12406e-87 1.9326e-86 8.9571e-86 4.11239e-85 1.87034e-84 8.42587e-84 3.7596e-83 1.66137e-82 7.27031e-82 3.1504e-81 1.35166e-80 5.74148e-80 2.41431e-79 1.00494e-78 4.14021e-78 1.68812e-77 6.81148e-77 2.71954e-76 1.07429e-75 4.1984e-75 1.62305e-74 6.20622e-74 2.34705e-73 8.77754e-73 3.24588e-72 1.18674e-71 4.28934e-71 1.53248e-70 5.41144e-70 1.88842e-69 6.51181e-69 2.21854e-68 7.46699e-68 2.48245e-67 8.15112e-67 2.64303e-66 8.46209e-66 2.67477e-65 8.34583e-65 2.57021e-64 7.81127e-64 2.34244e-63 6.9302e-63 2.02251e-62 5.82155e-62 1.65243e-61 4.62464e-61 1.27596e-60 3.46998e-60 9.30001e-60 2.45602e-59 6.39003e-59 1.63765e-58 4.13348e-58 1.02733e-57 2.51379e-57 6.05474e-57 1.43527e-56 3.34784e-56 7.68262e-56 1.73416e-55 3.84969e-55 8.40306e-55 1.8032e-54 3.80336e-54 7.88362e-54 1.60561e-53 3.2124e-53 6.31275e-53 1.21823e-52 2.30824e-52 4.29346e-52 7.83847e-52 1.40438e-51 2.4689e-51 4.25817e-51 7.20419e-51 1.19547e-50 1.94552e-50 3.1048e-50 4.85852e-50 7.45454e-50 1.12142e-49 1.65405e-49 2.39204e-49 3.39197e-49 4.71673e-49 6.43266e-49 8.60558e-49 1.12955e-48 1.45509e-48 1.84026e-48 2.28583e-48 2.78988e-48 3.34757e-48 3.95124e-48 4.59072e-48 5.25389e-48 5.92747e-48 6.59776e-48 7.25157e-48 7.87685e-48 8.46325e-48 9.00246e-48 9.48833e-48 9.91684e-48 1.02859e-47 1.05951e-47 1.08455e-47 1.10393e-47 1.11796e-47 1.12705e-47 1.13164e-47 1.13221e-47 1.12928e-47 1.12334e-47 1.1149e-47 1.10441e-47 1.0923e-47 1.07896e-47 1.06473e-47 1.04993e-47 1.03486e-47 1.01981e-47 1.00506e-47 9.909e-48 9.77608e-48 9.65464e-48 9.54734e-48 9.45665e-48 9.38483e-48 9.33382e-48 9.30518e-48 9.29991e-48 9.31832e-48 9.35978e-48 9.42248e-48 9.50328e-48 9.59755e-48 9.69926e-48 9.80126e-48 9.89571e-48 9.9747e-48 1.00311e-47 1.00591e-47 1.00552e-47 1.00185e-47 9.95062e-48 9.85618e-48 9.74178e-48 9.6155e-48 9.48602e-48 9.36161e-48 9.24932e-48 9.15434e-48 9.07958e-48 9.02562e-48 8.99093e-48 8.97224e-48 8.96517e-48 8.96485e-48 8.96645e-48 8.96579e-48 8.95962e-48 8.94595e-48 8.92411e-48 8.89476e-48 8.8598e-48 8.82218e-48 8.78561e-48 8.75426e-48 8.7324e-48 8.72408e-48 8.73277e-48 8.76111e-48 8.81079e-48 8.88248e-48 8.97587e-48 9.08981e-48 9.22243e-48 9.37121e-48 9.533e-48 9.70392e-48 9.87914e-48 1.00526e-47 1.02168e-47 1.03626e-47 1.04792e-47 1.05545e-47 1.05757e-47 1.05299e-47 1.04055e-47 1.01931e-47 9.8865e-48 9.48399e-48 8.9887e-48 8.40889e-48 7.75764e-48 7.05209e-48 6.31226e-48 5.55963e-48 4.81556e-48 4.0998e-48 3.42922e-48 2.81689e-48 2.27164e-48 1.79794e-48 1.39626e-48 1.06371e-48 7.94837e-49 5.82463e-49 4.18555e-49 2.94918e-49 2.0375e-49 1.38018e-49 9.16688e-50 5.96987e-50 3.81232e-50 2.3874e-50 1.46625e-50 8.83239e-51 5.219e-51 3.02542e-51 1.72081e-51 9.60478e-52 5.26157e-52 2.82932e-52 1.49368e-52 7.74312e-53 3.9421e-53 1.97137e-53 9.6853e-54 4.67562e-54 2.21832e-54 1.03454e-54 4.74332e-55 2.13851e-55 9.48221e-56 4.13577e-56 1.77472e-56 7.49385e-57 3.11429e-57 1.274e-57 5.13108e-58 2.03494e-58 7.9483e-59 3.05806e-59 1.15915e-59 4.32933e-60 1.59329e-60 5.77206e-61 2.03859e-61 6.42313e-62 0 
0 3.69247e-87 1.81933e-86 8.52591e-86 3.95168e-85 1.81437e-84 8.25223e-84 3.7178e-83 1.65896e-82 7.33136e-82 3.20847e-81 1.3904e-80 5.96587e-80 2.53432e-79 1.06578e-78 4.43661e-78 1.82799e-77 7.45413e-77 3.00801e-76 1.2011e-75 4.74524e-75 1.85468e-74 7.1709e-74 2.74237e-73 1.03724e-72 3.87965e-72 1.43489e-71 5.24695e-71 1.89677e-70 6.77783e-70 2.3938e-69 8.35512e-69 2.88162e-68 9.81949e-68 3.30563e-67 1.09921e-66 3.61004e-66 1.17083e-65 3.74948e-65 1.18545e-64 3.69976e-64 1.13968e-63 3.46457e-63 1.03923e-62 3.07546e-62 8.97795e-62 2.58494e-61 7.33946e-61 2.05471e-60 5.67079e-60 1.54267e-59 4.1359e-59 1.0926e-58 2.84367e-58 7.29033e-58 1.84074e-57 4.57657e-57 1.12025e-56 2.69923e-56 6.40084e-56 1.49358e-55 3.42876e-55 7.74249e-55 1.71942e-54 3.75456e-54 8.05994e-54 1.70067e-53 3.5265e-53 7.18492e-53 1.43805e-52 2.827e-52 5.45751e-52 1.03444e-51 1.92479e-51 3.51527e-51 6.30026e-51 1.10794e-50 1.91149e-50 3.23493e-50 5.36957e-50 8.74081e-50 1.39527e-49 2.18386e-49 3.35143e-49 5.04264e-49 7.43883e-49 1.07592e-48 1.52583e-48 2.1219e-48 2.89395e-48 3.87154e-48 5.08159e-48 6.54574e-48 8.27767e-48 1.02806e-47 1.25456e-47 1.50507e-47 1.7761e-47 2.06305e-47 2.36047e-47 2.66235e-47 2.96255e-47 3.25515e-47 3.53477e-47 3.79679e-47 4.03754e-47 4.25429e-47 4.4453e-47 4.60967e-47 4.74726e-47 4.85859e-47 4.94467e-47 5.00694e-47 5.04716e-47 5.06736e-47 5.06969e-47 5.05642e-47 5.02981e-47 4.99205e-47 4.9452e-47 4.89115e-47 4.83162e-47 4.76814e-47 4.70215e-47 4.63495e-47 4.56785e-47 4.50209e-47 4.43896e-47 4.3797e-47 4.32557e-47 4.27774e-47 4.23732e-47 4.20531e-47 4.18258e-47 4.16983e-47 4.1675e-47 4.17574e-47 4.19427e-47 4.22228e-47 4.25836e-47 4.30046e-47 4.3459e-47 4.39146e-47 4.43365e-47 4.46895e-47 4.49415e-47 4.50669e-47 4.50497e-47 4.48857e-47 4.4583e-47 4.41615e-47 4.3651e-47 4.30875e-47 4.25099e-47 4.19551e-47 4.14547e-47 4.10316e-47 4.0699e-47 4.04593e-47 4.03056e-47 4.02233e-47 4.01928e-47 4.01921e-47 4.01998e-47 4.01972e-47 4.01697e-47 4.01085e-47 4.00105e-47 3.98789e-47 3.97222e-47 3.95534e-47 3.93893e-47 3.92485e-47 3.91502e-47 3.91124e-47 3.91506e-47 3.92767e-47 3.94982e-47 3.98179e-47 4.02347e-47 4.07432e-47 4.13352e-47 4.19993e-47 4.27216e-47 4.34849e-47 4.42676e-47 4.50429e-47 4.57772e-47 4.64298e-47 4.69526e-47 4.72916e-47 4.73892e-47 4.71879e-47 4.66354e-47 4.5689e-47 4.4321e-47 4.25233e-47 4.03093e-47 3.77158e-47 3.4801e-47 3.16414e-47 2.83268e-47 2.49534e-47 2.16171e-47 1.84066e-47 1.53978e-47 1.26496e-47 1.02019e-47 8.075e-48 6.27119e-48 4.77764e-48 3.56995e-48 2.61599e-48 1.87972e-48 1.32436e-48 9.14866e-49 6.1964e-49 4.11489e-49 2.67934e-49 1.71068e-49 1.07106e-49 6.57654e-50 3.96063e-50 2.33971e-50 1.35595e-50 7.71025e-51 4.30226e-51 2.35609e-51 1.26656e-51 6.68442e-52 3.46402e-52 1.76299e-52 8.81344e-53 4.32857e-53 2.08893e-53 9.90745e-54 4.61887e-54 2.11702e-54 9.54126e-55 4.2292e-55 1.84399e-55 7.9102e-56 3.33903e-56 1.38718e-56 5.67286e-57 2.28404e-57 9.05547e-58 3.53589e-58 1.36e-58 5.15353e-59 1.92423e-59 7.0796e-60 2.56403e-60 9.05335e-61 2.85189e-61 0 