# vtk DataFile Version 3.0
Gray-Scott Simulation Output
ASCII
DATASET STRUCTURED_POINTS
DIMENSIONS 256 256 1
SPACING 1.0 1.0 1.0
ORIGIN 0 0 0
POINT_DATA 65536
SCALARS u double
LOOKUP_TABLE default
0 0 0 0 0 0 0 0 0 0 0 0 0 0 0 0 0 0 0 0 0 0 0 0 0 0 0 0 0 0 0 0 0 0 0 0 0 0 0 0 0 0 0 0 0 0 0 0 0 0 0 0 0 0 0 0 0 0 0 0 0 0 0 0 0 0 0 0 0 0 0 0 0 0 0 0 0 0 0 0 0 0 0 0 0 0 0 0 0 0 0 0 0 0 0 0 0 0 0 0 0 0 0 0 0 0 0 0 0 0 0 0 0 0 0 0 0 0 0 0 0 0 0 0 0 0 0 0 0 0 0 0 0 0 0 0 0 0 0 0 0 0 0 0 0 0 0 0 0 0 0 0 0 0 0 0 0 0 0 0 0 0 0 0 0 0 0 0 0 0 0 0 0 0 0 0 0 0 0 0 0 0 0 0 0 0 0 0 0 0 0 0 0 0 0 0 0 0 0 0 0 0 0 0 0 0 0 0 0 0 0 0 0 0 0 0 0 0 0 0 0 0 0 0 0 0 0 0 0 0 0 0 0 0 0 0 0 0 0 0 0 0 0 0 0 0 0 0 0 0 0 0 0 0 0 0 
0 3.13529e-77 1.11453e-76 3.62637e-76 1.16212e-75 3.69132e-75 1.16277e-74 3.63233e-74 1.12521e-73 3.45636e-73 1.05271e-72 3.17895e-72 9.5173e-72 2.82472e-71 8.31075e-71 2.42372e-70 7.00608e-70 2.0072e-69 5.69902e-69 1.60353e-68 4.47087e-68 1.23514e-67 3.38081e-67 9.16802e-67 2.46292e-66 6.55415e-66 1.7276e-65 4.5102e-65 1.16613e-64 2.98581e-64 7.57027e-64 1.90047e-63 4.72365e-63 1.16233e-62 2.83125e-62 6.82646e-62 1.62908e-61 3.84758e-61 8.99277e-61 2.07981e-60 4.75931e-60 1.0775e-59 2.41327e-59 5.34654e-59 1.1716e-58 2.53917e-58 5.44211e-58 1.15337e-57 2.4169e-57 5.00722e-57 1.02552e-56 2.07614e-56 4.15434e-56 8.21552e-56 1.60553e-55 3.10033e-55 5.91517e-55 1.11495e-54 2.07601e-54 3.81814e-54 6.93557e-54 1.24417e-53 2.20397e-53 3.85497e-53 6.65714e-53 1.13493e-52 1.90996e-52 3.17263e-52 5.2014e-52 8.41573e-52 1.3437e-51 2.117e-51 3.29091e-51 5.04735e-51 7.63726e-51 1.14003e-50 1.67872e-50 2.43842e-50 3.49377e-50 4.93773e-50 6.88338e-50 9.46496e-50 1.28376e-49 1.71754e-49 2.26678e-49 2.95129e-49 3.79097e-49 4.80468e-49 6.00902e-49 7.41702e-49 9.03674e-49 1.08701e-48 1.29118e-48 1.5149e-48 1.75607e-48 2.01185e-48 2.27876e-48 2.55278e-48 2.82956e-48 3.10462e-48 3.37355e-48 3.63225e-48 3.87705e-48 4.10488e-48 4.31336e-48 4.50082e-48 4.66629e-48 4.80948e-48 4.93065e-48 5.03053e-48 5.11023e-48 5.17111e-48 5.21468e-48 5.24256e-48 5.25637e-48 5.25772e-48 5.24817e-48 5.22922e-48 5.20227e-48 5.16868e-48 5.12972e-48 5.08663e-48 5.04055e-48 4.99263e-48 4.94393e-48 4.89551e-48 4.84836e-48 4.80346e-48 4.7617e-48 4.72392e-48 4.69089e-48 4.66323e-48 4.64145e-48 4.62589e-48 4.61668e-48 4.61373e-48 4.61672e-48 4.62506e-48 4.63793e-48 4.65425e-48 4.67277e-48 4.6921e-48 4.71079e-48 4.72741e-48 4.74064e-48 4.74938e-48 4.75281e-48 4.75044e-48 4.74218e-48 4.72831e-48 4.70946e-48 4.68654e-48 4.66068e-48 4.6331e-48 4.60502e-48 4.57757e-48 4.55168e-48 4.52804e-48 4.50705e-48 4.48884e-48 4.47329e-48 4.46008e-48 4.44876e-48 4.43882e-48 4.42978e-48 4.42126e-48 4.41302e-48 4.40502e-48 4.39742e-48 4.39059e-48 4.38508e-48 4.38157e-48 4.38086e-48 4.38376e-48 4.39108e-48 4.40353e-48 4.42172e-48 4.44606e-48 4.47676e-48 4.51378e-48 4.55682e-48 4.60525e-48 4.65816e-48 4.71427e-48 4.77192e-48 4.82908e-48 4.88335e-48 4.93193e-48 4.97168e-48 4.99921e-48 5.01097e-48 5.00336e-48 4.97298e-48 4.91672e-48 4.83209e-48 4.71733e-48 4.57161e-48 4.3952e-48 4.18952e-48 3.95713e-48 3.70168e-48 3.42777e-48 3.14067e-48 2.84615e-48 2.5501e-48 2.25827e-48 1.97599e-48 1.70792e-48 1.45789e-48 1.22875e-48 1.02236e-48 8.39609e-49 6.80496e-49 5.44249e-49 4.29488e-49 3.34389e-49 2.56845e-49 1.9462e-49 1.45475e-49 1.07265e-49 7.80182e-50 5.59757e-50 3.96162e-50 2.76581e-50 1.90485e-50 1.2942e-50 8.67483e-51 5.73667e-51 3.743e-51 2.40971e-51 1.53081e-51 9.59666e-52 5.93728e-52 3.6254e-52 2.18503e-52 1.29995e-52 7.63482e-53 4.42697e-53 2.53448e-53 1.43279e-53 7.99874e-54 4.41009e-54 2.40158e-54 1.29185e-54 6.86475e-55 3.60395e-55 1.86945e-55 9.58218e-56 4.85364e-56 2.42963e-56 1.20177e-56 5.86808e-57 2.81495e-57 1.29597e-57 5.03753e-58 0 
0 1.11319e-76 3.95787e-76 1.28804e-75 4.12861e-75 1.31169e-74 4.13278e-74 1.29132e-73 4.00119e-73 1.22936e-72 3.74523e-72 1.13126e-71 3.38772e-71 1.00574e-70 2.95984e-70 8.63438e-70 2.49659e-69 7.15465e-69 2.03202e-68 5.71919e-68 1.59508e-67 4.40803e-67 1.20694e-66 3.27404e-66 8.7984e-66 2.34216e-65 6.17577e-65 1.61286e-64 4.1716e-64 1.0685e-63 2.71009e-63 6.80606e-63 1.6923e-62 4.16577e-62 1.01512e-61 2.44853e-61 5.84559e-61 1.38118e-60 3.22949e-60 7.47217e-60 1.71061e-59 3.87444e-59 8.68131e-59 1.92416e-58 4.21834e-58 9.14629e-58 1.96117e-57 4.15827e-57 8.71763e-57 1.8069e-56 3.70236e-56 7.49881e-56 1.50119e-55 2.97008e-55 5.80698e-55 1.12186e-54 2.1414e-54 4.03815e-54 7.52236e-54 1.38411e-53 2.51532e-53 4.51421e-53 8.00011e-53 1.3999e-52 2.41849e-52 4.12478e-52 6.94431e-52 1.15396e-51 1.89259e-51 3.06326e-51 4.89264e-51 7.71088e-51 1.19904e-50 1.83954e-50 2.7842e-50 4.15707e-50 6.12276e-50 8.8954e-50 1.27476e-49 1.80187e-49 2.51218e-49 3.45466e-49 4.68591e-49 6.26942e-49 8.27414e-49 1.07722e-48 1.38358e-48 1.75333e-48 2.19246e-48 2.70563e-48 3.29567e-48 3.96315e-48 4.70601e-48 5.51937e-48 6.39544e-48 7.32373e-48 8.29137e-48 9.28363e-48 1.02846e-47 1.12779e-47 1.22477e-47 1.31789e-47 1.40585e-47 1.48755e-47 1.56214e-47 1.62906e-47 1.68798e-47 1.73881e-47 1.78169e-47 1.8169e-47 1.84487e-47 1.8661e-47 1.88116e-47 1.89063e-47 1.89512e-47 1.89519e-47 1.89141e-47 1.88432e-47 1.8744e-47 1.86216e-47 1.84802e-47 1.83244e-47 1.81582e-47 1.79855e-47 1.78103e-47 1.76362e-47 1.74668e-47 1.73055e-47 1.71556e-47 1.702e-47 1.69015e-47 1.68023e-47 1.67242e-47 1.66684e-47 1.66355e-47 1.66251e-47 1.6636e-47 1.66662e-47 1.67126e-47 1.67715e-47 1.68383e-47 1.6908e-47 1.69754e-47 1.70353e-47 1.70831e-47 1.71148e-47 1.71273e-47 1.7119e-47 1.70895e-47 1.70398e-47 1.69722e-47 1.689e-47 1.67972e-47 1.66982e-47 1.65975e-47 1.64991e-47 1.64063e-47 1.63216e-47 1.62464e-47 1.61812e-47 1.61256e-47 1.60784e-47 1.60379e-47 1.60023e-47 1.597e-47 1.59394e-47 1.59098e-47 1.5881e-47 1.58536e-47 1.5829e-47 1.5809e-47 1.57963e-47 1.57936e-47 1.5804e-47 1.58302e-47 1.5875e-47 1.59405e-47 1.60282e-47 1.61389e-47 1.62726e-47 1.64281e-47 1.66033e-47 1.67949e-47 1.69984e-47 1.7208e-47 1.74163e-47 1.76148e-47 1.77934e-47 1.79409e-47 1.80449e-47 1.80926e-47 1.8071e-47 1.79676e-47 1.77711e-47 1.74721e-47 1.70642e-47 1.65442e-47 1.59127e-47 1.51746e-47 1.43391e-47 1.34192e-47 1.24314e-47 1.13948e-47 1.03302e-47 9.25908e-48 8.20231e-48 7.17935e-48 6.20722e-48 5.29993e-48 4.468e-48 3.71831e-48 3.05422e-48 2.4758e-48 1.98035e-48 1.56292e-48 1.21694e-48 9.34769e-49 7.08314e-49 5.29441e-49 3.90364e-49 2.83908e-49 2.03676e-49 1.44132e-49 1.00612e-49 6.92814e-50 4.70626e-50 3.15389e-50 2.0852e-50 1.3602e-50 8.75456e-51 5.55996e-51 3.48452e-51 2.15515e-51 1.31555e-51 7.92622e-52 4.71397e-52 2.76761e-52 1.6042e-52 9.18077e-53 5.1881e-53 2.89522e-53 1.59566e-53 8.68597e-54 4.67045e-54 2.48084e-54 1.3019e-54 6.75048e-55 3.45866e-55 1.75119e-55 8.7625e-56 4.33245e-56 2.11462e-56 1.014e-56 4.66666e-57 1.81349e-57 0 
0 3.61687e-76 1.28622e-75 4.18688e-75 1.34238e-74 4.26598e-74 1.34446e-73 4.20206e-73 1.30239e-72 4.00272e-72 1.21979e-71 3.68554e-71 1.10403e-70 3.27865e-70 9.65205e-70 2.81661e-69 8.14684e-69 2.3355e-68 6.63547e-68 1.86825e-67 5.21246e-67 1.44101e-66 3.94706e-66 1.07112e-65 2.87958e-65 7.66862e-65 2.02288e-64 5.28513e-64 1.36756e-63 3.50433e-63 8.8921e-63 2.23413e-62 5.55759e-62 1.36869e-61 3.33677e-61 8.05231e-61 1.92332e-60 4.54657e-60 1.06361e-59 2.46212e-59 5.63939e-59 1.27794e-58 2.86491e-58 6.3532e-58 1.39354e-57 3.0231e-57 6.48564e-57 1.37589e-56 2.88604e-56 5.98512e-56 1.22703e-55 2.48659e-55 4.98064e-55 9.85952e-55 1.92875e-54 3.72822e-54 7.12025e-54 1.34343e-53 2.50392e-53 4.60966e-53 8.38148e-53 1.505e-52 2.66853e-52 4.67189e-52 8.07525e-52 1.37792e-51 2.32091e-51 3.85852e-51 6.33107e-51 1.02516e-50 1.63806e-50 2.58262e-50 4.01747e-50 6.16563e-50 9.3349e-50 1.3942e-49 2.05401e-49 2.98487e-49 4.27838e-49 6.04857e-49 8.43413e-49 1.15996e-48 1.57347e-48 2.10526e-48 2.7784e-48 3.61702e-48 4.64523e-48 5.88575e-48 7.35843e-48 9.07854e-48 1.10552e-47 1.32897e-47 1.57746e-47 1.84928e-47 2.14177e-47 2.45135e-47 2.77364e-47 3.10367e-47 3.43608e-47 3.76539e-47 4.08627e-47 4.39378e-47 4.68358e-47 4.95209e-47 5.19661e-47 5.41531e-47 5.60724e-47 5.77225e-47 5.91087e-47 6.02416e-47 6.11361e-47 6.18099e-47 6.22821e-47 6.25725e-47 6.27011e-47 6.26869e-47 6.25485e-47 6.23031e-47 6.19673e-47 6.15566e-47 6.10855e-47 6.0568e-47 6.00175e-47 5.94469e-47 5.88684e-47 5.82942e-47 5.7736e-47 5.72047e-47 5.67111e-47 5.62649e-47 5.58748e-47 5.55486e-47 5.5292e-47 5.51089e-47 5.50011e-47 5.49675e-47 5.50043e-47 5.51045e-47 5.52583e-47 5.54532e-47 5.56742e-47 5.59048e-47 5.61279e-47 5.63264e-47 5.64848e-47 5.65899e-47 5.66319e-47 5.66052e-47 5.65087e-47 5.63455e-47 5.61233e-47 5.5853e-47 5.55478e-47 5.52224e-47 5.48913e-47 5.45677e-47 5.42628e-47 5.39845e-47 5.37378e-47 5.3524e-47 5.33417e-47 5.31869e-47 5.30543e-47 5.29377e-47 5.28314e-47 5.27309e-47 5.26334e-47 5.25384e-47 5.24478e-47 5.23661e-47 5.22999e-47 5.22574e-47 5.22481e-47 5.22818e-47 5.23682e-47 5.25159e-47 5.27323e-47 5.30223e-47 5.33889e-47 5.38318e-47 5.43476e-47 5.49296e-47 5.55672e-47 5.62457e-47 5.69459e-47 5.76443e-47 5.83125e-47 5.89173e-47 5.94217e-47 5.9785e-47 5.99643e-47 5.99162e-47 5.95987e-47 5.89737e-47 5.80095e-47 5.66836e-47 5.49843e-47 5.29131e-47 5.04854e-47 4.77305e-47 4.46914e-47 4.14223e-47 3.79866e-47 3.44536e-47 3.08947e-47 2.73799e-47 2.39744e-47 2.07354e-47 1.77103e-47 1.49346e-47 1.24319e-47 1.02138e-47 8.281e-48 6.62482e-48 5.22901e-48 4.07178e-48 3.12781e-48 2.3701e-48 1.77154e-48 1.30611e-48 9.49842e-49 6.81341e-49 4.82086e-49 3.36465e-49 2.31644e-49 1.57321e-49 1.05402e-49 6.96681e-50 4.54321e-50 2.92321e-50 1.8559e-50 1.16272e-50 7.18873e-51 4.3865e-51 2.64184e-51 1.57055e-51 9.21696e-52 5.34015e-52 3.05481e-52 1.72552e-52 9.62487e-53 5.30214e-53 2.88488e-53 1.55046e-53 8.23179e-54 4.31782e-54 2.23775e-54 1.14597e-54 5.79947e-55 2.90049e-55 1.43339e-55 6.99287e-56 3.35165e-56 1.54186e-56 5.9899e-57 0 
0 1.15737e-75 4.1167e-75 1.34041e-74 4.29875e-74 1.36649e-73 4.30783e-73 1.34679e-72 4.17549e-72 1.28368e-71 3.91309e-71 1.1827e-70 3.54402e-70 1.05282e-69 3.10047e-69 9.05077e-69 2.6188e-68 7.51018e-68 2.13453e-67 6.01215e-67 1.67805e-66 4.64084e-66 1.27168e-65 3.45239e-65 9.2852e-65 2.47378e-64 6.52831e-64 1.70639e-63 4.41733e-63 1.13244e-62 2.87485e-62 7.22641e-62 1.79848e-61 4.43132e-61 1.08086e-60 2.60962e-60 6.23629e-60 1.47496e-59 3.45225e-59 7.99572e-59 1.83235e-58 4.15452e-58 9.31869e-58 2.06763e-57 4.53774e-57 9.8495e-57 2.11426e-56 4.4878e-56 9.41889e-56 1.95442e-55 4.0091e-55 8.12919e-55 1.62921e-54 3.227e-54 6.31637e-54 1.22164e-53 2.33446e-53 4.40712e-53 8.21875e-53 1.51391e-52 2.75418e-52 4.9482e-52 8.7785e-52 1.5377e-51 2.65928e-51 4.53998e-51 7.65077e-51 1.27256e-50 2.08901e-50 3.38416e-50 5.40977e-50 8.53275e-50 1.32786e-49 2.03863e-49 3.08759e-49 4.61288e-49 6.7979e-49 9.88118e-49 1.41664e-48 2.00316e-48 2.79363e-48 3.84254e-48 5.21277e-48 6.97474e-48 9.20475e-48 1.19824e-47 1.5387e-47 1.94931e-47 2.43656e-47 3.00536e-47 3.65858e-47 4.39648e-47 5.21639e-47 6.11245e-47 7.0756e-47 8.09377e-47 9.15233e-47 1.02347e-46 1.1323e-46 1.23992e-46 1.34457e-46 1.44464e-46 1.53872e-46 1.62565e-46 1.70458e-46 1.77495e-46 1.83648e-46 1.88918e-46 1.93324e-46 1.96905e-46 1.99714e-46 2.01811e-46 2.03259e-46 2.04125e-46 2.04475e-46 2.0437e-46 2.03872e-46 2.03035e-46 2.01912e-46 2.00553e-46 1.99004e-46 1.9731e-46 1.95513e-46 1.93653e-46 1.91771e-46 1.89905e-46 1.88091e-46 1.86367e-46 1.84765e-46 1.83318e-46 1.82054e-46 1.80996e-46 1.80165e-46 1.79573e-46 1.79225e-46 1.79119e-46 1.79241e-46 1.79569e-46 1.80071e-46 1.80707e-46 1.81428e-46 1.8218e-46 1.82907e-46 1.83555e-46 1.84073e-46 1.84417e-46 1.84556e-46 1.84472e-46 1.84161e-46 1.83633e-46 1.82913e-46 1.82037e-46 1.81048e-46 1.79994e-46 1.78921e-46 1.77873e-46 1.76885e-46 1.75985e-46 1.75187e-46 1.74496e-46 1.73907e-46 1.73407e-46 1.72979e-46 1.72603e-46 1.72259e-46 1.71933e-46 1.71617e-46 1.71307e-46 1.71012e-46 1.70745e-46 1.70529e-46 1.70389e-46 1.70357e-46 1.70466e-46 1.70746e-46 1.71226e-46 1.71931e-46 1.72876e-46 1.74072e-46 1.75519e-46 1.77207e-46 1.79113e-46 1.81205e-46 1.83436e-46 1.85744e-46 1.88053e-46 1.90272e-46 1.92294e-46 1.93997e-46 1.95249e-46 1.9591e-46 1.95835e-46 1.94886e-46 1.92937e-46 1.8988e-46 1.85639e-46 1.80173e-46 1.73483e-46 1.65616e-46 1.56666e-46 1.46771e-46 1.36108e-46 1.24883e-46 1.13324e-46 1.01665e-46 9.01387e-47 7.89594e-47 6.83177e-47 5.83706e-47 4.92373e-47 4.09973e-47 3.36903e-47 2.73203e-47 2.18598e-47 1.72561e-47 1.34383e-47 1.03234e-47 7.82266e-48 5.84693e-48 4.31056e-48 3.13449e-48 2.24816e-48 1.59046e-48 1.10984e-48 7.63928e-49 5.18698e-49 3.47429e-49 2.29577e-49 1.49666e-49 9.62674e-50 6.10975e-50 3.82635e-50 2.36481e-50 1.44241e-50 8.68352e-51 5.16005e-51 3.02691e-51 1.75295e-51 1.0023e-51 5.65886e-52 3.15498e-52 1.73717e-52 9.44721e-53 5.07483e-53 2.69299e-53 1.41184e-53 7.31327e-54 3.74328e-54 1.89341e-54 9.46465e-55 4.67495e-55 2.27954e-55 1.09204e-55 5.02149e-56 1.95013e-56 0 
0 3.67077e-75 1.30596e-74 4.25338e-74 1.36446e-73 4.33858e-73 1.36813e-72 4.27857e-72 1.3269e-71 4.0806e-71 1.24431e-70 3.76206e-70 1.12769e-69 3.35119e-69 9.87242e-69 2.88295e-68 8.34472e-68 2.39398e-67 6.80672e-67 1.91793e-66 5.35525e-66 1.48166e-65 4.0617e-65 1.10314e-64 2.96816e-64 7.91126e-64 2.0887e-63 5.46196e-63 1.41459e-62 3.62818e-62 9.21494e-62 2.31744e-61 5.77039e-61 1.42248e-60 3.47137e-60 8.38556e-60 2.00496e-59 4.74447e-59 1.11107e-58 2.57473e-58 5.90364e-58 1.33928e-57 3.00571e-57 6.67283e-57 1.46529e-56 3.18234e-56 6.83505e-56 1.45168e-55 3.04853e-55 6.32942e-55 1.29912e-54 2.63577e-54 5.28563e-54 1.04755e-53 2.05165e-53 3.97044e-53 7.5917e-53 1.43405e-52 2.6759e-52 4.93191e-52 8.9776e-52 1.61385e-51 2.8647e-51 5.02079e-51 8.68758e-51 1.48395e-50 2.50206e-50 4.16381e-50 6.83854e-50 1.10836e-49 1.77257e-49 2.79705e-49 4.35452e-49 6.68795e-49 1.01328e-48 1.51435e-48 2.23233e-48 3.24571e-48 4.65437e-48 6.58268e-48 9.18177e-48 1.26307e-47 1.71361e-47 2.29291e-47 3.02599e-47 3.93889e-47 5.05752e-47 6.40615e-47 8.00573e-47 9.87204e-47 1.20139e-46 1.44317e-46 1.71158e-46 2.00463e-46 2.31927e-46 2.65146e-46 2.99635e-46 3.34842e-46 3.70182e-46 4.0506e-46 4.38903e-46 4.71187e-46 5.01458e-46 5.2935e-46 5.54594e-46 5.77021e-46 5.96557e-46 6.13211e-46 6.27067e-46 6.38262e-46 6.46975e-46 6.53408e-46 6.57779e-46 6.60303e-46 6.61196e-46 6.6066e-46 6.58886e-46 6.56053e-46 6.52327e-46 6.47865e-46 6.42814e-46 6.37311e-46 6.31492e-46 6.25483e-46 6.19411e-46 6.13396e-46 6.07556e-46 6.02007e-46 5.96854e-46 5.92201e-46 5.88136e-46 5.84739e-46 5.82071e-46 5.80172e-46 5.7906e-46 5.78724e-46 5.79125e-46 5.8019e-46 5.81817e-46 5.83873e-46 5.86204e-46 5.88637e-46 5.90991e-46 5.93088e-46 5.94764e-46 5.95882e-46 5.9634e-46 5.96077e-46 5.95082e-46 5.9339e-46 5.91079e-46 5.88264e-46 5.85086e-46 5.81697e-46 5.7825e-46 5.74884e-46 5.71714e-46 5.68825e-46 5.66267e-46 5.64054e-46 5.62168e-46 5.60569e-46 5.59199e-46 5.57993e-46 5.56891e-46 5.55845e-46 5.54826e-46 5.53828e-46 5.52874e-46 5.52011e-46 5.51307e-46 5.50852e-46 5.50745e-46 5.5109e-46 5.51991e-46 5.53539e-46 5.55814e-46 5.58872e-46 5.62744e-46 5.67432e-46 5.72906e-46 5.791e-46 5.85909e-46 5.93184e-46 6.00732e-46 6.08309e-46 6.15623e-46 6.22329e-46 6.28037e-46 6.32317e-46 6.3471e-46 6.34749e-46 6.31979e-46 6.2598e-46 6.16397e-46 6.0297e-46 5.85554e-46 5.64142e-46 5.38876e-46 5.10052e-46 4.7811e-46 4.43621e-46 4.07255e-46 3.6975e-46 3.31873e-46 2.9438e-46 2.5798e-46 2.23298e-46 1.90853e-46 1.61042e-46 1.34128e-46 1.10249e-46 8.94217e-47 7.15606e-47 5.64971e-47 4.40013e-47 3.38037e-47 2.56155e-47 1.91455e-47 1.41139e-47 1.02622e-47 7.35947e-48 5.20564e-48 3.63187e-48 2.49936e-48 1.69663e-48 1.13611e-48 7.50509e-49 4.89119e-49 3.14502e-49 1.99531e-49 1.24913e-49 7.71696e-50 4.70499e-50 2.83127e-50 1.68169e-50 9.8604e-51 5.7077e-51 3.262e-51 1.84078e-51 1.02578e-51 5.64522e-52 3.06846e-52 1.64746e-52 8.73784e-53 4.57854e-53 2.37042e-53 1.21265e-53 6.13053e-54 3.06287e-54 1.51207e-54 7.36911e-55 3.52847e-55 1.62175e-55 6.29604e-56 0 
0 1.15456e-74 4.10855e-74 1.33848e-73 4.29496e-73 1.36608e-72 4.30909e-72 1.348e-71 4.18183e-71 1.28644e-70 3.92407e-70 1.18681e-69 3.55874e-69 1.05793e-68 3.11771e-68 9.10767e-68 2.63721e-67 7.56868e-67 2.15281e-66 6.06839e-66 1.6951e-65 4.69183e-65 1.28672e-64 3.49619e-64 9.41111e-64 2.50953e-63 6.62859e-63 1.73418e-62 4.49343e-62 1.15304e-61 2.92995e-61 7.37209e-61 1.83656e-60 4.52968e-60 1.10598e-59 2.67304e-59 6.39456e-59 1.514e-58 3.54746e-58 8.22522e-58 1.88703e-57 4.28328e-57 9.61838e-57 2.13657e-56 4.69444e-56 1.02015e-55 2.19239e-55 4.65913e-55 9.79011e-55 2.03388e-54 4.1771e-54 8.48006e-54 1.70159e-53 3.37443e-53 6.61294e-53 1.28055e-52 2.44997e-52 4.63074e-52 8.64608e-52 1.59451e-51 2.90422e-51 5.22381e-51 9.27807e-51 1.62704e-50 2.81689e-50 4.81426e-50 8.12157e-50 1.35226e-49 2.22204e-49 3.60313e-49 5.7651e-49 9.10119e-49 1.4175e-48 2.17795e-48 3.301e-48 4.93505e-48 7.27712e-48 1.05835e-47 1.51806e-47 2.14744e-47 2.99583e-47 4.12169e-47 5.59238e-47 7.48321e-47 9.87561e-47 1.28542e-46 1.6503e-46 2.09003e-46 2.61134e-46 3.21924e-46 3.91643e-46 4.7028e-46 5.57502e-46 6.52632e-46 7.54651e-46 8.6222e-46 9.73731e-46 1.08738e-45 1.20124e-45 1.31339e-45 1.42196e-45 1.52527e-45 1.62186e-45 1.71059e-45 1.79062e-45 1.86145e-45 1.92288e-45 1.975e-45 2.01812e-45 2.05272e-45 2.07942e-45 2.09889e-45 2.11185e-45 2.11901e-45 2.12107e-45 2.11868e-45 2.11244e-45 2.10292e-45 2.09065e-45 2.07611e-45 2.05976e-45 2.04202e-45 2.02332e-45 2.00406e-45 1.98462e-45 1.96539e-45 1.94674e-45 1.92902e-45 1.91258e-45 1.89773e-45 1.88477e-45 1.87395e-45 1.86545e-45 1.85941e-45 1.85588e-45 1.85484e-45 1.85614e-45 1.85957e-45 1.8648e-45 1.8714e-45 1.87888e-45 1.88668e-45 1.89424e-45 1.90097e-45 1.90636e-45 1.90996e-45 1.91145e-45 1.91064e-45 1.90748e-45 1.9021e-45 1.89474e-45 1.88577e-45 1.87564e-45 1.86484e-45 1.85385e-45 1.84313e-45 1.83304e-45 1.82385e-45 1.81571e-45 1.80868e-45 1.80269e-45 1.79761e-45 1.79327e-45 1.78944e-45 1.78593e-45 1.7826e-45 1.77934e-45 1.77615e-45 1.77309e-45 1.77032e-45 1.76806e-45 1.76658e-45 1.76622e-45 1.76732e-45 1.77019e-45 1.77514e-45 1.78243e-45 1.79224e-45 1.80467e-45 1.81975e-45 1.83737e-45 1.85734e-45 1.87934e-45 1.90289e-45 1.92739e-45 1.95207e-45 1.976e-45 1.99808e-45 2.01707e-45 2.03158e-45 2.04014e-45 2.04122e-45 2.03334e-45 2.01513e-45 1.98541e-45 1.94331e-45 1.88832e-45 1.82039e-45 1.73992e-45 1.64786e-45 1.54559e-45 1.43493e-45 1.31804e-45 1.1973e-45 1.07519e-45 9.54179e-46 8.36563e-46 7.24392e-46 6.19367e-46 5.22792e-46 4.35548e-46 3.58096e-46 2.90508e-46 2.32522e-46 1.83599e-46 1.43004e-46 1.09868e-46 8.32557e-47 6.22253e-47 4.58691e-47 3.33482e-47 2.39125e-47 1.69115e-47 1.17965e-47 8.11628e-48 5.50814e-48 3.6874e-48 2.43513e-48 1.5865e-48 1.01976e-48 6.4673e-49 4.04716e-49 2.49926e-49 1.52314e-49 9.16154e-50 5.43922e-50 3.18772e-50 1.84432e-50 1.05353e-50 5.94218e-51 3.3096e-51 1.82044e-51 9.88986e-52 5.30706e-52 2.81326e-52 1.47333e-52 7.62364e-53 3.89797e-53 1.96953e-53 9.83462e-54 4.85249e-54 2.3636e-54 1.13115e-54 5.19654e-55 2.01672e-55 0 
0 3.60121e-74 1.28181e-73 4.17702e-73 1.34073e-72 4.26567e-72 1.34596e-71 4.21184e-71 1.30704e-70 4.02212e-70 1.22729e-69 3.71313e-69 1.1138e-68 3.31226e-68 9.76479e-68 2.85363e-67 8.2661e-67 2.37326e-66 6.75311e-66 1.90436e-65 5.3217e-65 1.47361e-64 4.04307e-64 1.09904e-63 2.95973e-63 7.89593e-63 2.08657e-62 5.46148e-62 1.41581e-61 3.63483e-61 9.24091e-61 2.3263e-60 5.79833e-60 1.43085e-59 3.49544e-59 8.45271e-59 2.0232e-58 4.79286e-58 1.12365e-57 2.6068e-57 5.98397e-57 1.35906e-56 3.05366e-56 6.78726e-56 1.49219e-55 3.24464e-55 6.97727e-55 1.48368e-54 3.11956e-54 6.48487e-54 1.33268e-53 2.70721e-53 5.43565e-53 1.07863e-52 2.11515e-52 4.09842e-52 7.84614e-52 1.48394e-51 2.77241e-51 5.11605e-51 9.32407e-51 1.67814e-50 2.98235e-50 5.23306e-50 9.06523e-50 1.55019e-49 2.6166e-49 4.35905e-49 7.16657e-49 1.16267e-48 1.86121e-48 2.9396e-48 4.58039e-48 7.04057e-48 1.06751e-47 1.59652e-47 2.35496e-47 3.42595e-47 4.91529e-47 6.95465e-47 9.70395e-47 1.33526e-46 1.81186e-46 2.42457e-46 3.1997e-46 4.16454e-46 5.3461e-46 6.7695e-46 8.45615e-46 1.04218e-45 1.26746e-45 1.52135e-45 1.8027e-45 2.10923e-45 2.43755e-45 2.78326e-45 3.14109e-45 3.50513e-45 3.86916e-45 4.22692e-45 4.57244e-45 4.90032e-45 5.20597e-45 5.48581e-45 5.73728e-45 5.95892e-45 6.15026e-45 6.31172e-45 6.44445e-45 6.55014e-45 6.63087e-45 6.68889e-45 6.72658e-45 6.74624e-45 6.75009e-45 6.74022e-45 6.71854e-45 6.68682e-45 6.64669e-45 6.59964e-45 6.54709e-45 6.49037e-45 6.43075e-45 6.36948e-45 6.30775e-45 6.24675e-45 6.18763e-45 6.13151e-45 6.07947e-45 6.0325e-45 5.99152e-45 5.95729e-45 5.93045e-45 5.91139e-45 5.9003e-45 5.89707e-45 5.9013e-45 5.91226e-45 5.92891e-45 5.94993e-45 5.97373e-45 5.99858e-45 6.02262e-45 6.04406e-45 6.06125e-45 6.07277e-45 6.07759e-45 6.0751e-45 6.06518e-45 6.0482e-45 6.02494e-45 5.99659e-45 5.96456e-45 5.93041e-45 5.89569e-45 5.86181e-45 5.82993e-45 5.80092e-45 5.77526e-45 5.75309e-45 5.73423e-45 5.71826e-45 5.70457e-45 5.6925e-45 5.68145e-45 5.67092e-45 5.66061e-45 5.65048e-45 5.64075e-45 5.63191e-45 5.62468e-45 5.61996e-45 5.61877e-45 5.6222e-45 5.63129e-45 5.64702e-45 5.67019e-45 5.70141e-45 5.74103e-45 5.78912e-45 5.84542e-45 5.90933e-45 5.97983e-45 6.0555e-45 6.13443e-45 6.21423e-45 6.29197e-45 6.36418e-45 6.42689e-45 6.4757e-45 6.50587e-45 6.51252e-45 6.49084e-45 6.43636e-45 6.34523e-45 6.21452e-45 6.0425e-45 5.82885e-45 5.57479e-45 5.28316e-45 4.95836e-45 4.60615e-45 4.2334e-45 3.84774e-45 3.45715e-45 3.06956e-45 2.69243e-45 2.33239e-45 1.99499e-45 1.6845e-45 1.40381e-45 1.15447e-45 9.36776e-46 7.49922e-46 5.92218e-46 4.61317e-46 3.5444e-46 2.68591e-46 2.0074e-46 1.47966e-46 1.07565e-46 7.71193e-47 5.45316e-47 3.80307e-47 2.616e-47 1.7749e-47 1.18785e-47 7.84206e-48 5.1074e-48 3.28171e-48 2.08047e-48 1.30141e-48 8.03325e-49 4.89359e-49 2.94212e-49 1.74592e-49 1.02272e-49 5.91423e-50 3.37665e-50 1.90354e-50 1.05965e-50 5.82551e-51 3.16309e-51 1.69644e-51 8.98785e-52 4.7044e-52 2.4329e-52 1.24325e-52 6.27828e-53 3.13323e-53 1.5451e-53 7.52187e-54 3.59782e-54 1.65205e-54 6.40914e-55 0 
0 1.11387e-73 3.96563e-73 1.29264e-72 4.15034e-72 1.32088e-71 4.1691e-71 1.30504e-70 4.05119e-70 1.24708e-69 3.8066e-69 1.15208e-68 3.45705e-68 1.02845e-67 3.03308e-67 8.86715e-67 2.56955e-66 7.38033e-66 2.10093e-65 5.92703e-65 1.657e-64 4.59032e-64 1.25998e-63 3.42658e-63 9.23211e-63 2.46408e-62 6.51465e-62 1.706e-61 4.42474e-61 1.13654e-60 2.89093e-60 7.2814e-60 1.81586e-59 4.48337e-59 1.09585e-58 2.65145e-58 6.34995e-58 1.50513e-57 3.53069e-57 8.19579e-57 1.88248e-56 4.278e-56 9.618e-56 2.13907e-55 4.70567e-55 1.02385e-54 2.20307e-54 4.6877e-54 9.86254e-54 2.05152e-53 4.21871e-53 8.57548e-53 1.72294e-52 3.42116e-52 6.71315e-52 1.30162e-51 2.49349e-51 4.719e-51 8.82207e-51 1.62902e-50 2.97079e-50 5.35015e-50 9.51406e-50 1.67043e-49 2.89542e-49 4.95421e-49 8.36709e-49 1.39467e-48 2.29417e-48 3.72391e-48 5.96424e-48 9.42445e-48 1.46916e-47 2.25922e-47 3.42688e-47 5.12696e-47 7.56512e-47 1.10089e-46 1.5799e-46 2.23591e-46 3.12038e-46 4.29424e-46 5.82758e-46 7.79865e-46 1.02918e-45 1.33945e-45 1.71929e-45 2.17669e-45 2.71842e-45 3.34938e-45 4.072e-45 4.88572e-45 5.78655e-45 6.76692e-45 7.81567e-45 8.91836e-45 1.00578e-44 1.1215e-44 1.23698e-44 1.3502e-44 1.45927e-44 1.56248e-44 1.65838e-44 1.74587e-44 1.82418e-44 1.89288e-44 1.95189e-44 2.00138e-44 2.04179e-44 2.07367e-44 2.09775e-44 2.11475e-44 2.12546e-44 2.13062e-44 2.13094e-44 2.12707e-44 2.11962e-44 2.10913e-44 2.0961e-44 2.08099e-44 2.06423e-44 2.04623e-44 2.02737e-44 2.00803e-44 1.98858e-44 1.96939e-44 1.9508e-44 1.93317e-44 1.91683e-44 1.90209e-44 1.88924e-44 1.87851e-44 1.87009e-44 1.86413e-44 1.86067e-44 1.85968e-44 1.86104e-44 1.86451e-44 1.86978e-44 1.87642e-44 1.88393e-44 1.89178e-44 1.89937e-44 1.90614e-44 1.91158e-44 1.91523e-44 1.91678e-44 1.91603e-44 1.91293e-44 1.90762e-44 1.90033e-44 1.89144e-44 1.8814e-44 1.87069e-44 1.85981e-44 1.84919e-44 1.8392e-44 1.83012e-44 1.82209e-44 1.81516e-44 1.80927e-44 1.80429e-44 1.80001e-44 1.79624e-44 1.79279e-44 1.78948e-44 1.78624e-44 1.78306e-44 1.77999e-44 1.77719e-44 1.7749e-44 1.7734e-44 1.77301e-44 1.77408e-44 1.77693e-44 1.78188e-44 1.78919e-44 1.79905e-44 1.81158e-44 1.8268e-44 1.84465e-44 1.86494e-44 1.88737e-44 1.9115e-44 1.93674e-44 1.96235e-44 1.98742e-44 2.01086e-44 2.03142e-44 2.0477e-44 2.05821e-44 2.06138e-44 2.05567e-44 2.03963e-44 2.01202e-44 1.97185e-44 1.91854e-44 1.85194e-44 1.77241e-44 1.68081e-44 1.5785e-44 1.4673e-44 1.34938e-44 1.22716e-44 1.1032e-44 9.80016e-45 8.60018e-45 7.45339e-45 6.37771e-45 5.387e-45 4.49075e-45 3.69411e-45 2.99819e-45 2.40058e-45 1.89602e-45 1.47707e-45 1.13492e-45 8.60046e-46 6.42764e-46 4.7375e-46 3.44361e-46 2.46858e-46 1.74525e-46 1.2169e-46 8.36863e-47 5.67642e-47 3.79783e-47 2.50647e-47 1.63186e-47 1.04814e-47 6.64217e-48 4.15319e-48 2.56254e-48 1.56031e-48 9.37645e-49 5.5615e-49 3.25618e-49 1.88204e-49 1.07396e-49 6.05108e-50 3.36667e-50 1.84983e-50 1.00385e-50 5.38085e-51 2.84919e-51 1.49047e-51 7.70362e-52 3.9344e-52 1.98569e-52 9.90403e-53 4.88121e-53 2.37493e-53 1.13534e-53 5.21068e-54 2.02074e-54 0 
0 3.41622e-73 1.21655e-72 3.96664e-72 1.27398e-71 4.05579e-71 1.28055e-70 4.00976e-70 1.24516e-69 3.8343e-69 1.17079e-68 3.54472e-68 1.06406e-67 3.16668e-67 9.34271e-67 2.7324e-66 7.92121e-66 2.27608e-65 6.48194e-65 1.82943e-64 5.11671e-64 1.41809e-63 3.89423e-63 1.05954e-62 2.85602e-62 7.62647e-62 2.01731e-61 5.28538e-61 1.37153e-60 3.52473e-60 8.97029e-60 2.26055e-59 5.64049e-59 1.39341e-58 3.40775e-58 8.24988e-58 1.9769e-57 4.68859e-57 1.10049e-56 2.55609e-56 5.87462e-56 1.33585e-55 3.00519e-55 6.68783e-55 1.47217e-54 3.20517e-54 6.90121e-54 1.4694e-53 3.09353e-53 6.43916e-53 1.32502e-52 2.6952e-52 5.41868e-52 1.07668e-51 2.11413e-51 4.10187e-51 7.86313e-51 1.48912e-50 2.78572e-50 5.1473e-50 9.39312e-50 1.69272e-49 3.01206e-49 5.29176e-49 9.17809e-49 1.57137e-48 2.65544e-48 4.42878e-48 7.28923e-48 1.18383e-47 1.89702e-47 2.99908e-47 4.6774e-47 7.19597e-47 1.09197e-46 1.63432e-46 2.41238e-46 3.51166e-46 5.041e-46 7.13583e-46 9.96054e-46 1.37096e-45 1.86068e-45 2.49016e-45 3.28625e-45 4.27673e-45 5.48893e-45 6.94807e-45 8.67531e-45 1.06858e-44 1.29867e-44 1.55754e-44 1.84384e-44 2.15505e-44 2.48754e-44 2.8366e-44 3.19669e-44 3.56167e-44 3.92511e-44 4.2806e-44 4.62211e-44 4.94427e-44 5.24262e-44 5.51373e-44 5.75533e-44 5.96626e-44 6.14639e-44 6.29648e-44 6.41801e-44 6.51296e-44 6.58367e-44 6.63258e-44 6.66219e-44 6.67488e-44 6.6729e-44 6.65831e-44 6.63295e-44 6.59852e-44 6.55652e-44 6.50836e-44 6.45531e-44 6.3986e-44 6.33941e-44 6.27886e-44 6.21808e-44 6.15817e-44 6.10022e-44 6.04529e-44 5.99441e-44 5.94853e-44 5.90853e-44 5.87516e-44 5.84902e-44 5.83052e-44 5.81982e-44 5.81683e-44 5.82115e-44 5.83207e-44 5.84858e-44 5.86938e-44 5.89291e-44 5.91747e-44 5.94126e-44 5.96249e-44 5.97955e-44 5.99104e-44 5.99596e-44 5.9937e-44 5.98414e-44 5.96765e-44 5.945e-44 5.91736e-44 5.88612e-44 5.85282e-44 5.81897e-44 5.78597e-44 5.75495e-44 5.72675e-44 5.70184e-44 5.68036e-44 5.66212e-44 5.64668e-44 5.63345e-44 5.62178e-44 5.61105e-44 5.60079e-44 5.5907e-44 5.58074e-44 5.57114e-44 5.56238e-44 5.55518e-44 5.55044e-44 5.54918e-44 5.55247e-44 5.56136e-44 5.57683e-44 5.5997e-44 5.63059e-44 5.66988e-44 5.7177e-44 5.77384e-44 5.83777e-44 5.90858e-44 5.98494e-44 6.06506e-44 6.14665e-44 6.22689e-44 6.30242e-44 6.36931e-44 6.42321e-44 6.45937e-44 6.47284e-44 6.45871e-44 6.41233e-44 6.32966e-44 6.20751e-44 6.04388e-44 5.83818e-44 5.59137e-44 5.30606e-44 4.98648e-44 4.63824e-44 4.26818e-44 3.88394e-44 3.49357e-44 3.10514e-44 2.72628e-44 2.36381e-44 2.02349e-44 1.70978e-44 1.42578e-44 1.17317e-44 9.5238e-45 7.62691e-45 6.02469e-45 4.69392e-45 3.60682e-45 2.73328e-45 2.04269e-45 1.50546e-45 1.09418e-45 7.8426e-46 5.5436e-46 3.86453e-46 2.65699e-46 1.80173e-46 1.20509e-46 7.95064e-47 5.17446e-47 3.32229e-47 2.1045e-47 1.31533e-47 8.11204e-48 4.93705e-48 2.96542e-48 1.75801e-48 1.02876e-48 5.94301e-49 3.38949e-49 1.90871e-49 1.06137e-49 5.82842e-50 3.16111e-50 1.69344e-50 8.96168e-51 4.68528e-51 2.4202e-51 1.23532e-51 6.23094e-52 3.10597e-52 1.52988e-52 7.4392e-53 3.55432e-53 1.63044e-53 6.32055e-54 0 