# vtk DataFile Version 3.0
Gray-Scott Simulation Output
ASCII
DATASET STRUCTURED_POINTS
DIMENSIONS 256 256 1
SPACING 1.0 1.0 1.0
ORIGIN 0 0 0
POINT_DATA 65536
SCALARS u double
LOOKUP_TABLE default
0 0 0 0 0 0 0 0 0 0 0 0 0 0 0 0 0 0 0 0 0 0 0 0 0 0 0 0 0 0 0 0 0 0 0 0 0 0 0 0 0 0 0 0 0 0 0 0 0 0 0 0 0 0 0 0 0 0 0 0 0 0 0 0 0 0 0 0 0 0 0 0 0 0 0 0 0 0 0 0 0 0 0 0 0 0 0 0 0 0 0 0 0 0 0 0 0 0 0 0 0 0 0 0 0 0 0 0 0 0 0 0 0 0 0 0 0 0 0 0 0 0 0 0 0 0 0 0 0 0 0 0 0 0 0 0 0 0 0 0 0 0 0 0 0 0 0 0 0 0 0 0 0 0 0 0 0 0 0 0 0 0 0 0 0 0 0 0 0 0 0 0 0 0 0 0 0 0 0 0 0 0 0 0 0 0 0 0 0 0 0 0 0 0 0 0 0 0 0 0 0 0 0 0 0 0 0 0 0 0 0 0 0 0 0 0 0 0 0 0 0 0 0 0 0 0 0 0 0 0 0 0 0 0 0 0 0 0 0 0 0 0 0 0 0 0 0 0 0 0 0 0 0 0 0 0 
0 2.81119e-93 1.40711e-92 6.70715e-92 3.16212e-91 1.4767e-90 6.83092e-90 3.1297e-89 1.42013e-88 6.38145e-88 2.83949e-87 1.251e-86 5.45668e-86 2.35624e-85 1.00714e-84 4.26088e-84 1.78407e-83 7.39236e-83 3.03092e-82 1.22954e-81 4.93455e-81 1.95904e-80 7.69283e-80 2.98767e-79 1.14746e-78 4.35765e-78 1.63619e-77 6.07337e-77 2.22841e-76 8.08125e-76 2.89621e-75 1.02565e-74 3.58868e-74 1.24046e-73 4.23533e-73 1.42822e-72 4.75613e-72 1.56387e-71 5.07673e-71 1.62683e-70 5.14535e-70 1.60599e-69 4.94612e-69 1.50285e-68 4.50439e-68 1.33155e-67 3.88165e-67 1.11569e-66 3.16137e-66 8.82956e-66 2.43034e-65 6.59152e-65 1.76127e-64 4.63568e-64 1.20164e-63 3.06714e-63 7.70756e-63 1.90654e-62 4.64135e-62 1.11182e-61 2.6202e-61 6.0739e-61 1.3847e-60 3.10393e-60 6.8401e-60 1.48157e-59 3.15365e-59 6.5956e-59 1.35508e-58 2.7344e-58 5.41842e-58 1.05419e-57 2.01335e-57 3.77402e-57 6.94226e-57 1.25297e-56 2.21849e-56 3.85291e-56 6.56264e-56 1.09616e-55 1.79526e-55 2.88271e-55 4.53797e-55 7.00306e-55 1.05942e-54 1.57108e-54 2.28397e-54 3.25516e-54 4.54867e-54 6.23285e-54 8.37641e-54 1.10433e-53 1.42866e-53 1.81427e-53 2.26249e-53 2.77195e-53 3.33832e-53 3.9543e-53 4.60993e-53 5.29313e-53 5.99039e-53 6.68763e-53 7.37104e-53 8.0278e-53 8.64671e-53 9.21852e-53 9.73617e-53 1.01947e-52 1.05914e-52 1.0925e-52 1.11962e-52 1.1407e-52 1.15603e-52 1.16601e-52 1.17112e-52 1.17187e-52 1.1688e-52 1.16248e-52 1.15342e-52 1.14214e-52 1.12911e-52 1.11474e-52 1.0994e-52 1.08345e-52 1.06719e-52 1.05095e-52 1.03502e-52 1.01972e-52 1.00535e-52 9.92211e-53 9.80588e-53 9.7075e-53 9.62942e-53 9.57376e-53 9.54221e-53 9.53593e-53 9.55531e-53 9.59973e-53 9.66735e-53 9.75481e-53 9.85714e-53 9.96783e-53 1.00791e-52 1.01823e-52 1.02689e-52 1.03309e-52 1.03619e-52 1.0358e-52 1.0318e-52 1.02439e-52 1.01406e-52 1.00153e-52 9.87699e-53 9.73513e-53 9.59886e-53 9.47593e-53 9.37204e-53 9.2904e-53 9.23165e-53 9.19408e-53 9.17413e-53 9.167e-53 9.16734e-53 9.16991e-53 9.17011e-53 9.16441e-53 9.15061e-53 9.12795e-53 9.09712e-53 9.06013e-53 9.02013e-53 8.98111e-53 8.94756e-53 8.92409e-53 8.91507e-53 8.92425e-53 8.95449e-53 9.00761e-53 9.08433e-53 9.18432e-53 9.30633e-53 9.44835e-53 9.60771e-53 9.78106e-53 9.96428e-53 1.01522e-52 1.03385e-52 1.0515e-52 1.06719e-52 1.07978e-52 1.08797e-52 1.09039e-52 1.08568e-52 1.07261e-52 1.0502e-52 1.01784e-52 9.75386e-53 9.23227e-53 8.62289e-53 7.94008e-53 7.20236e-53 6.43115e-53 5.64917e-53 4.8788e-53 4.14049e-53 3.45148e-53 2.82491e-53 2.26936e-53 1.78886e-53 1.38329e-53 1.04913e-53 7.80287e-54 5.69021e-54 4.06828e-54 2.8515e-54 1.95929e-54 1.31972e-54 8.71411e-55 5.64079e-55 3.57975e-55 2.22736e-55 1.3589e-55 8.13e-56 4.77027e-56 2.74536e-56 1.54995e-56 8.5853e-57 4.66638e-57 2.48919e-57 1.30334e-57 6.69963e-58 3.38152e-58 1.67616e-58 8.16093e-59 3.90354e-59 1.83465e-59 8.47418e-60 3.84746e-60 1.71735e-60 7.53762e-61 3.25369e-61 1.38154e-61 5.77127e-62 2.37237e-62 9.59773e-63 3.82216e-63 1.49858e-63 5.78564e-64 2.19989e-64 8.23951e-65 3.0403e-65 1.10525e-65 3.95493e-66 1.38015e-66 4.30518e-67 0 
0 1.40544e-92 7.03474e-92 3.35318e-91 1.58087e-90 7.38266e-90 3.41509e-89 1.56469e-88 7.10001e-88 3.19049e-87 1.41967e-86 6.2548e-86 2.72833e-85 1.17815e-84 5.03599e-84 2.13065e-83 8.92159e-83 3.69687e-82 1.51582e-81 6.1495e-81 2.46813e-80 9.79922e-80 3.84826e-79 1.49466e-78 5.74088e-78 2.18036e-77 8.18741e-77 3.03936e-76 1.11529e-75 4.04497e-75 1.44982e-74 5.13487e-74 1.79686e-73 6.21173e-73 2.12115e-72 7.1538e-72 2.38261e-71 7.83541e-71 2.54394e-70 8.15323e-70 2.57911e-69 8.05134e-69 2.48006e-68 7.53683e-68 2.25936e-67 6.68013e-67 1.94771e-66 5.59934e-66 1.58691e-65 4.43306e-65 1.22045e-64 3.31079e-64 8.84842e-64 2.32943e-63 6.03959e-63 1.54194e-62 3.8757e-62 9.5892e-62 2.33499e-61 5.59473e-61 1.31882e-60 3.05794e-60 6.97305e-60 1.56347e-59 3.44628e-59 7.46656e-59 1.58972e-58 3.32561e-58 6.83423e-58 1.37942e-57 2.7341e-57 5.32066e-57 1.01642e-56 1.90572e-56 3.50635e-56 6.32984e-56 1.12099e-55 1.94727e-55 3.31742e-55 5.54214e-55 9.07837e-55 1.45798e-54 2.29551e-54 3.54295e-54 5.36039e-54 7.95008e-54 1.15585e-53 1.64745e-53 2.30222e-53 3.15472e-53 4.2397e-53 5.58945e-53 7.23078e-53 9.18188e-53 1.14494e-52 1.40261e-52 1.68899e-52 2.00036e-52 2.33166e-52 2.67676e-52 3.02881e-52 3.38069e-52 3.72543e-52 4.05656e-52 4.36844e-52 4.65644e-52 4.91702e-52 5.14774e-52 5.34719e-52 5.51488e-52 5.65112e-52 5.75692e-52 5.83383e-52 5.88386e-52 5.90938e-52 5.91299e-52 5.89745e-52 5.86552e-52 5.8199e-52 5.76314e-52 5.69756e-52 5.62527e-52 5.54814e-52 5.4679e-52 5.38617e-52 5.3045e-52 5.22443e-52 5.1475e-52 5.07525e-52 5.00918e-52 4.95075e-52 4.9013e-52 4.86206e-52 4.83409e-52 4.81825e-52 4.81511e-52 4.82489e-52 4.84726e-52 4.88131e-52 4.92533e-52 4.97685e-52 5.03257e-52 5.08858e-52 5.14056e-52 5.18413e-52 5.21533e-52 5.23095e-52 5.22898e-52 5.20887e-52 5.17159e-52 5.1196e-52 5.05657e-52 4.98698e-52 4.91563e-52 4.84711e-52 4.78531e-52 4.73312e-52 4.69213e-52 4.66267e-52 4.64388e-52 4.63394e-52 4.63044e-52 4.63068e-52 4.63202e-52 4.63215e-52 4.62928e-52 4.62232e-52 4.61088e-52 4.5953e-52 4.57662e-52 4.55641e-52 4.53669e-52 4.51973e-52 4.50784e-52 4.50323e-52 4.50779e-52 4.52296e-52 4.54965e-52 4.58823e-52 4.63852e-52 4.6999e-52 4.77136e-52 4.85154e-52 4.93877e-52 5.03098e-52 5.12558e-52 5.21934e-52 5.30821e-52 5.38728e-52 5.45074e-52 5.49207e-52 5.50436e-52 5.48076e-52 5.41504e-52 5.30225e-52 5.13927e-52 4.92536e-52 4.66242e-52 4.35513e-52 4.01069e-52 3.63844e-52 3.24919e-52 2.8544e-52 2.46539e-52 2.09248e-52 1.74441e-52 1.42783e-52 1.14709e-52 9.04247e-53 6.99256e-53 5.30343e-53 3.94437e-53 2.87636e-53 2.05641e-53 1.44128e-53 9.90251e-54 6.66947e-54 4.40344e-54 2.85011e-54 1.80851e-54 1.12512e-54 6.86335e-55 4.10554e-55 2.40853e-55 1.3859e-55 7.82295e-56 4.33239e-56 2.35433e-56 1.25561e-56 6.57304e-57 3.37807e-57 1.70466e-57 8.44789e-58 4.11222e-58 1.96653e-58 9.24055e-59 4.26724e-59 1.93699e-59 8.64406e-60 3.79312e-60 1.63698e-60 6.94922e-61 2.90237e-61 1.19281e-61 4.82467e-62 1.92096e-62 7.5301e-63 2.90662e-63 1.10498e-63 4.1378e-64 1.52652e-64 5.54843e-65 1.98504e-65 6.92606e-66 2.16019e-66 0 
0 6.6905e-92 3.34883e-91 1.59625e-90 7.5256e-90 3.51448e-89 1.62575e-88 7.44879e-88 3.38005e-87 1.51891e-86 6.75883e-86 2.9779e-85 1.29899e-84 5.60953e-84 2.39789e-83 1.01456e-82 4.24842e-82 1.76053e-81 7.21906e-81 2.92887e-80 1.1756e-79 4.66781e-79 1.83324e-78 7.12085e-78 2.73531e-77 1.03896e-76 3.90173e-76 1.44856e-75 5.31606e-75 1.92826e-74 6.91218e-74 2.44842e-73 8.56892e-73 2.96267e-72 1.01182e-71 3.41297e-71 1.13688e-70 3.73931e-70 1.21425e-69 3.89228e-69 1.23146e-68 3.84501e-68 1.1846e-67 3.60067e-67 1.07961e-66 3.19267e-66 9.31077e-66 2.67726e-65 7.58933e-65 2.12057e-64 5.83944e-64 1.58447e-63 4.23569e-63 1.11536e-62 2.89257e-62 7.38676e-62 1.85717e-61 4.5962e-61 1.11948e-60 2.68306e-60 6.32642e-60 1.4673e-59 3.34685e-59 7.50631e-59 1.65504e-58 3.58676e-58 7.63883e-58 1.59845e-57 3.2858e-57 6.63392e-57 1.31525e-56 2.56022e-56 4.89216e-56 9.17494e-56 1.68854e-55 3.04901e-55 5.401e-55 9.38421e-55 1.59908e-54 2.67201e-54 4.3778e-54 7.03202e-54 1.10734e-53 1.70936e-53 2.58656e-53 3.83662e-53 5.57856e-53 7.95182e-53 1.11128e-52 1.52283e-52 2.04658e-52 2.69809e-52 3.49024e-52 4.43173e-52 5.52567e-52 6.76849e-52 8.14935e-52 9.6502e-52 1.12465e-51 1.29086e-51 1.46033e-51 1.62964e-51 1.79542e-51 1.95457e-51 2.10438e-51 2.24264e-51 2.36766e-51 2.47829e-51 2.57387e-51 2.65418e-51 2.7194e-51 2.77e-51 2.80676e-51 2.83063e-51 2.84277e-51 2.84442e-51 2.8369e-51 2.82154e-51 2.79964e-51 2.7724e-51 2.74095e-51 2.70629e-51 2.66932e-51 2.63087e-51 2.5917e-51 2.55256e-51 2.51419e-51 2.47733e-51 2.44271e-51 2.41106e-51 2.38306e-51 2.35937e-51 2.34058e-51 2.32719e-51 2.31961e-51 2.31812e-51 2.32282e-51 2.33356e-51 2.3499e-51 2.37102e-51 2.39574e-51 2.42248e-51 2.44935e-51 2.47429e-51 2.49521e-51 2.51018e-51 2.51768e-51 2.51674e-51 2.50709e-51 2.48921e-51 2.46428e-51 2.43405e-51 2.40068e-51 2.36648e-51 2.33364e-51 2.30404e-51 2.27905e-51 2.25944e-51 2.24537e-51 2.23641e-51 2.23169e-51 2.23006e-51 2.23022e-51 2.23089e-51 2.23096e-51 2.22959e-51 2.22624e-51 2.22073e-51 2.21323e-51 2.20423e-51 2.1945e-51 2.18499e-51 2.17681e-51 2.17107e-51 2.16882e-51 2.17098e-51 2.17823e-51 2.19101e-51 2.2095e-51 2.23361e-51 2.26304e-51 2.29731e-51 2.33577e-51 2.3776e-51 2.42183e-51 2.46722e-51 2.51221e-51 2.55487e-51 2.59285e-51 2.62335e-51 2.64324e-51 2.64921e-51 2.63796e-51 2.60647e-51 2.55237e-51 2.47413e-51 2.37139e-51 2.24504e-51 2.09732e-51 1.93168e-51 1.75261e-51 1.56529e-51 1.37526e-51 1.18796e-51 1.00837e-51 8.40707e-52 6.88184e-52 5.52906e-52 4.35872e-52 3.3707e-52 2.55649e-52 1.90135e-52 1.38649e-52 9.91208e-53 6.9467e-53 4.77245e-53 3.21401e-53 2.12178e-53 1.37315e-53 8.71197e-54 5.41913e-54 3.30517e-54 1.97675e-54 1.15945e-54 6.67034e-55 3.76441e-55 2.0843e-55 1.13241e-55 6.03804e-56 3.16013e-56 1.6237e-56 8.19162e-57 4.05858e-57 1.97513e-57 9.44305e-58 4.4361e-58 2.04806e-58 9.29427e-59 4.14666e-59 1.81916e-59 7.84893e-60 3.33117e-60 1.39094e-60 5.71511e-61 2.3111e-61 9.19963e-62 3.6054e-62 1.39137e-62 5.28826e-63 1.97987e-63 7.30262e-64 2.65373e-64 9.49226e-65 3.31134e-65 1.03263e-65 0 
0 3.15008e-91 1.57672e-90 7.51561e-90 3.5433e-89 1.65474e-88 7.65471e-88 3.50727e-87 1.59153e-86 7.1521e-86 3.18264e-85 1.40229e-84 6.1172e-84 2.64174e-83 1.12931e-82 4.77838e-82 2.00104e-81 8.29271e-81 3.40066e-80 1.37979e-79 5.53863e-79 2.19933e-78 8.63837e-78 3.3557e-77 1.28914e-76 4.89702e-76 1.83923e-75 6.82911e-75 2.5065e-74 9.09275e-74 3.25986e-73 1.15485e-72 4.04228e-72 1.3978e-71 4.77453e-71 1.61074e-70 5.36633e-70 1.76534e-69 5.73349e-69 1.8382e-68 5.81688e-68 1.81656e-67 5.5977e-67 1.7018e-66 5.10366e-66 1.50961e-65 4.40343e-65 1.26647e-64 3.59094e-64 1.0036e-63 2.7643e-63 7.50254e-63 2.00613e-62 5.28399e-62 1.37071e-61 3.50133e-61 8.80541e-61 2.17981e-60 5.3108e-60 1.2732e-59 3.00296e-59 6.96688e-59 1.58958e-58 3.56616e-58 7.86526e-58 1.70505e-57 3.63237e-57 7.60312e-57 1.56337e-56 3.15732e-56 6.26158e-56 1.21921e-55 2.33037e-55 4.37167e-55 8.04775e-55 1.45357e-54 2.5755e-54 4.47602e-54 7.62898e-54 1.27506e-53 2.08948e-53 3.35697e-53 5.2872e-53 8.16297e-53 1.23538e-52 1.83265e-52 2.665e-52 3.79907e-52 5.30957e-52 7.27616e-52 9.77877e-52 1.28915e-51 1.66757e-51 2.11726e-51 2.63964e-51 3.23296e-51 3.89198e-51 4.60801e-51 5.36926e-51 6.16152e-51 6.96897e-51 7.7752e-51 8.56418e-51 9.32115e-51 1.00333e-50 1.06901e-50 1.12836e-50 1.18085e-50 1.22617e-50 1.26423e-50 1.29512e-50 1.31906e-50 1.33644e-50 1.34771e-50 1.35342e-50 1.35416e-50 1.35056e-50 1.34325e-50 1.33284e-50 1.31991e-50 1.30498e-50 1.28854e-50 1.271e-50 1.25276e-50 1.23419e-50 1.21563e-50 1.19743e-50 1.17995e-50 1.16354e-50 1.14853e-50 1.13526e-50 1.12403e-50 1.11512e-50 1.10877e-50 1.10518e-50 1.10448e-50 1.10672e-50 1.11182e-50 1.11958e-50 1.12961e-50 1.14135e-50 1.15405e-50 1.16681e-50 1.17866e-50 1.18859e-50 1.1957e-50 1.19926e-50 1.19882e-50 1.19424e-50 1.18576e-50 1.17392e-50 1.15957e-50 1.14374e-50 1.12751e-50 1.11194e-50 1.09791e-50 1.08607e-50 1.07679e-50 1.07013e-50 1.06591e-50 1.0637e-50 1.06295e-50 1.06304e-50 1.06337e-50 1.06341e-50 1.06276e-50 1.06116e-50 1.05854e-50 1.05496e-50 1.05067e-50 1.04603e-50 1.0415e-50 1.0376e-50 1.03485e-50 1.03377e-50 1.03477e-50 1.0382e-50 1.04426e-50 1.05303e-50 1.06447e-50 1.07844e-50 1.0947e-50 1.11295e-50 1.13281e-50 1.15381e-50 1.17536e-50 1.19673e-50 1.21699e-50 1.23505e-50 1.24956e-50 1.25904e-50 1.26191e-50 1.25661e-50 1.24169e-50 1.21601e-50 1.17885e-50 1.13001e-50 1.06993e-50 9.99655e-51 9.20823e-51 8.35566e-51 7.46357e-51 6.55826e-51 5.6657e-51 4.80968e-51 4.01033e-51 3.28302e-51 2.63783e-51 2.07957e-51 1.60823e-51 1.21976e-51 9.07173e-52 6.61504e-52 4.72891e-52 3.31396e-52 2.27653e-52 1.53298e-52 1.01191e-52 6.54786e-53 4.1537e-53 2.58333e-53 1.57532e-53 9.41989e-54 5.52409e-54 3.17736e-54 1.79276e-54 9.92401e-55 5.39051e-55 2.87354e-55 1.50356e-55 7.72347e-56 3.89553e-56 1.92957e-56 9.38792e-57 4.48717e-57 2.10741e-57 9.72693e-58 4.41301e-58 1.96836e-58 8.63303e-59 3.72384e-59 1.58004e-59 6.59583e-60 2.70942e-60 1.09538e-60 4.35922e-61 1.708e-61 6.58984e-62 2.50406e-62 9.37281e-63 3.45634e-63 1.25574e-63 4.49078e-64 1.56628e-64 4.88359e-65 0 
0 1.4691e-90 7.35335e-90 3.50507e-89 1.65251e-88 7.71744e-88 3.57009e-87 1.63579e-86 7.4231e-86 3.33592e-85 1.48451e-84 6.54111e-84 2.85354e-83 1.23237e-82 5.26847e-82 2.22934e-81 9.33635e-81 3.86942e-80 1.58687e-79 6.43906e-79 2.58492e-78 1.02653e-77 4.03229e-77 1.56655e-76 6.0187e-76 2.28655e-75 8.58882e-75 3.18942e-74 1.17076e-73 4.24766e-73 1.52304e-72 5.39633e-72 1.88913e-71 6.5335e-71 2.23202e-70 7.53122e-70 2.50952e-69 8.25688e-69 2.68217e-68 8.60085e-68 2.72221e-67 8.50293e-67 2.62071e-66 7.9691e-66 2.39044e-65 7.07225e-65 2.06341e-64 5.93597e-64 1.68349e-63 4.70622e-63 1.2966e-62 3.52e-62 9.41475e-62 2.48045e-61 6.43626e-61 1.64454e-60 4.137e-60 1.02442e-59 2.4966e-59 5.98709e-59 1.41254e-58 3.27809e-58 7.48167e-58 1.679e-57 3.70423e-57 8.03261e-57 1.71177e-56 3.58412e-56 7.37203e-56 1.48929e-55 2.95444e-55 5.7544e-55 1.10021e-54 2.06454e-54 3.80166e-54 6.86838e-54 1.2173e-53 2.11611e-53 3.60761e-53 6.03094e-53 9.88525e-53 1.58849e-52 2.50233e-52 3.86403e-52 5.84868e-52 8.67748e-52 1.262e-51 1.79918e-51 2.51468e-51 3.44621e-51 4.63157e-51 6.10577e-51 7.89774e-51 1.00268e-50 1.24995e-50 1.53071e-50 1.84247e-50 2.18106e-50 2.5409e-50 2.91521e-50 3.2965e-50 3.677e-50 4.04915e-50 4.40597e-50 4.74145e-50 5.05065e-50 5.3299e-50 5.5767e-50 5.78965e-50 5.96837e-50 6.1133e-50 6.2256e-50 6.307e-50 6.35971e-50 6.3863e-50 6.38958e-50 6.37248e-50 6.33798e-50 6.28895e-50 6.22809e-50 6.15788e-50 6.08055e-50 5.99811e-50 5.91238e-50 5.82507e-50 5.73785e-50 5.65234e-50 5.5702e-50 5.49307e-50 5.42255e-50 5.36018e-50 5.30742e-50 5.26557e-50 5.23576e-50 5.21892e-50 5.21566e-50 5.22621e-50 5.25024e-50 5.28676e-50 5.33397e-50 5.38921e-50 5.44897e-50 5.50904e-50 5.56479e-50 5.61155e-50 5.64502e-50 5.6618e-50 5.65973e-50 5.63821e-50 5.59829e-50 5.54262e-50 5.47514e-50 5.40068e-50 5.32438e-50 5.25118e-50 5.18525e-50 5.12966e-50 5.08612e-50 5.05496e-50 5.03522e-50 5.02494e-50 5.02152e-50 5.02204e-50 5.02366e-50 5.02389e-50 5.02083e-50 5.0133e-50 5.0009e-50 4.98401e-50 4.96375e-50 4.94182e-50 4.9204e-50 4.90193e-50 4.88892e-50 4.88373e-50 4.8884e-50 4.90447e-50 4.93293e-50 4.97415e-50 5.02795e-50 5.09364e-50 5.17013e-50 5.25599e-50 5.34941e-50 5.4482e-50 5.5496e-50 5.65019e-50 5.74564e-50 5.83069e-50 5.89913e-50 5.94395e-50 5.95768e-50 5.93291e-50 5.86287e-50 5.74212e-50 5.5672e-50 5.33719e-50 5.05405e-50 4.7227e-50 4.35086e-50 3.94855e-50 3.52745e-50 3.09998e-50 2.67839e-50 2.27397e-50 1.89622e-50 1.55245e-50 1.24744e-50 9.83478e-51 7.60588e-51 5.76876e-51 4.29034e-51 3.12839e-51 2.23629e-51 1.56706e-51 1.0764e-51 7.24757e-52 4.78348e-52 3.09487e-52 1.96296e-52 1.22062e-52 7.44204e-53 4.44922e-53 2.60861e-53 1.5001e-53 8.46206e-54 4.68317e-54 2.54318e-54 1.35536e-54 7.09002e-55 3.64104e-55 1.83597e-55 9.09162e-56 4.42214e-56 2.11309e-56 9.92143e-57 4.57808e-57 2.07646e-57 9.2592e-58 4.05989e-58 1.75076e-58 7.42652e-59 3.09936e-59 1.27281e-59 5.14446e-60 2.0468e-60 8.01761e-61 3.09261e-61 1.17487e-61 4.39655e-62 1.62091e-62 5.88766e-63 2.10508e-63 7.34053e-64 2.28836e-64 0 
0 6.78643e-90 3.39686e-89 1.61918e-88 7.63391e-88 3.56519e-87 1.64929e-86 7.55714e-86 3.42947e-85 1.54125e-84 6.85892e-84 3.02233e-83 1.31854e-82 5.69472e-82 2.43467e-81 1.03029e-80 4.31506e-80 1.78848e-79 7.33522e-79 2.97666e-78 1.19506e-77 4.74627e-77 1.86455e-76 7.24451e-76 2.78364e-75 1.05765e-74 3.97322e-74 1.47562e-73 5.41732e-73 1.96574e-72 7.04933e-72 2.49804e-71 8.74636e-71 3.02539e-70 1.03373e-69 3.48856e-69 1.16265e-68 3.82607e-68 1.2431e-67 3.98699e-67 1.26216e-66 3.94323e-66 1.21561e-65 3.69728e-65 1.1093e-64 3.28271e-64 9.57998e-64 2.75663e-63 7.82003e-63 2.18667e-62 6.02606e-62 1.63639e-61 4.37798e-61 1.15377e-60 2.99466e-60 7.65394e-60 1.926e-59 4.7707e-59 1.16302e-58 2.78989e-58 6.58428e-58 1.52851e-57 3.48967e-57 7.83389e-57 1.72888e-56 3.75028e-56 7.99455e-56 1.67445e-55 3.44522e-55 6.96221e-55 1.3816e-54 2.69181e-54 5.14817e-54 9.66348e-54 1.77997e-53 3.21675e-53 5.70272e-53 9.91608e-53 1.69096e-52 2.82751e-52 4.6356e-52 7.45068e-52 1.17392e-51 1.81306e-51 2.74472e-51 4.0728e-51 5.92389e-51 8.44621e-51 1.18059e-50 1.61798e-50 2.17453e-50 2.86662e-50 3.70777e-50 4.70696e-50 5.86714e-50 7.18412e-50 8.64596e-50 1.0233e-49 1.19189e-49 1.36718e-49 1.54564e-49 1.72362e-49 1.89759e-49 2.06429e-49 2.22091e-49 2.36518e-49 2.49537e-49 2.61036e-49 2.70952e-49 2.79267e-49 2.86006e-49 2.91223e-49 2.95001e-49 2.97444e-49 2.98671e-49 2.98813e-49 2.98008e-49 2.96394e-49 2.94105e-49 2.91266e-49 2.87993e-49 2.84389e-49 2.80548e-49 2.76554e-49 2.72488e-49 2.68425e-49 2.64443e-49 2.60617e-49 2.57025e-49 2.53741e-49 2.50837e-49 2.4838e-49 2.46431e-49 2.45044e-49 2.44261e-49 2.4411e-49 2.44603e-49 2.45725e-49 2.47428e-49 2.49631e-49 2.52207e-49 2.54995e-49 2.57797e-49 2.60398e-49 2.6258e-49 2.64142e-49 2.64925e-49 2.64829e-49 2.63826e-49 2.61965e-49 2.5937e-49 2.56224e-49 2.52753e-49 2.49198e-49 2.45788e-49 2.42718e-49 2.40132e-49 2.38108e-49 2.36661e-49 2.35747e-49 2.35274e-49 2.3512e-49 2.35149e-49 2.35227e-49 2.35239e-49 2.35097e-49 2.34745e-49 2.34164e-49 2.33373e-49 2.32424e-49 2.31397e-49 2.30394e-49 2.29528e-49 2.28917e-49 2.28671e-49 2.28885e-49 2.29632e-49 2.30957e-49 2.32877e-49 2.35385e-49 2.38447e-49 2.42013e-49 2.46015e-49 2.50371e-49 2.54978e-49 2.59708e-49 2.644e-49 2.68856e-49 2.72829e-49 2.76029e-49 2.78129e-49 2.78781e-49 2.77636e-49 2.74379e-49 2.68752e-49 2.60594e-49 2.49858e-49 2.36634e-49 2.2115e-49 2.03767e-49 1.84952e-49 1.6525e-49 1.45244e-49 1.25507e-49 1.06568e-49 8.88736e-50 7.27674e-50 5.84745e-50 4.61035e-50 3.56559e-50 2.70438e-50 2.01128e-50 1.46652e-50 1.04827e-50 7.3451e-51 5.04484e-51 3.39639e-51 2.24136e-51 1.44993e-51 9.19489e-52 5.71663e-52 3.48471e-52 2.08291e-52 1.22096e-52 7.01959e-53 3.95881e-53 2.19039e-53 1.18918e-53 6.33595e-54 3.3135e-54 1.70116e-54 8.57559e-55 4.2454e-55 2.06437e-55 9.8616e-56 4.62892e-56 2.13532e-56 9.68231e-57 4.31624e-57 1.89201e-57 8.15665e-58 3.45899e-58 1.44317e-58 5.92502e-59 2.39413e-59 9.52285e-60 3.72927e-60 1.43811e-60 5.46194e-61 2.04344e-61 7.53184e-62 2.73516e-62 9.77709e-63 3.40858e-63 1.06241e-63 0 
0 3.10498e-89 1.55417e-88 7.40835e-88 3.49286e-87 1.63127e-86 7.54661e-86 3.45799e-85 1.56931e-84 7.05293e-84 3.13885e-83 1.38318e-82 6.03463e-82 2.60647e-81 1.11441e-80 4.71621e-80 1.97538e-79 8.18808e-79 3.35849e-78 1.363e-77 5.47263e-77 2.1737e-76 8.54015e-76 3.31854e-75 1.27526e-74 4.84593e-74 1.82068e-73 6.76271e-73 2.48307e-72 9.0114e-72 3.23205e-71 1.1455e-70 4.01138e-70 1.38777e-69 4.74261e-69 1.6008e-68 5.33603e-68 1.75633e-67 5.70749e-67 1.83094e-66 5.79744e-66 1.81162e-65 5.58611e-65 1.69941e-64 5.09998e-64 1.50959e-63 4.40656e-63 1.26831e-62 3.59891e-62 1.00661e-61 2.77482e-61 7.53723e-61 2.01708e-60 5.31737e-60 1.38056e-59 3.52962e-59 8.88452e-59 2.20139e-58 5.36834e-58 1.2882e-57 3.04121e-57 7.06237e-57 1.61292e-56 3.62202e-56 7.99623e-56 1.73513e-55 3.70007e-55 7.75237e-55 1.59561e-54 3.22554e-54 6.40297e-54 1.24791e-53 2.38745e-53 4.48284e-53 8.25973e-53 1.49315e-52 2.64785e-52 4.60546e-52 7.85564e-52 1.3139e-51 2.15461e-51 3.46383e-51 5.4587e-51 8.43224e-51 1.27673e-50 1.89477e-50 2.75627e-50 3.93023e-50 5.49393e-50 7.52967e-50 1.01198e-49 1.33405e-49 1.72542e-49 2.19022e-49 2.72979e-49 3.3421e-49 4.02151e-49 4.75884e-49 5.5417e-49 6.35525e-49 7.18306e-49 8.00817e-49 8.81415e-49 9.58593e-49 1.03105e-48 1.09775e-48 1.1579e-48 1.21099e-48 1.25673e-48 1.29507e-48 1.32612e-48 1.35013e-48 1.3675e-48 1.37871e-48 1.38432e-48 1.38492e-48 1.38117e-48 1.37368e-48 1.36309e-48 1.34997e-48 1.33484e-48 1.3182e-48 1.30046e-48 1.28203e-48 1.26326e-48 1.2445e-48 1.22612e-48 1.20847e-48 1.19189e-48 1.17673e-48 1.16333e-48 1.15199e-48 1.143e-48 1.13661e-48 1.13299e-48 1.13231e-48 1.13459e-48 1.13978e-48 1.14765e-48 1.15783e-48 1.16974e-48 1.18263e-48 1.19559e-48 1.20761e-48 1.2177e-48 1.22493e-48 1.22855e-48 1.22811e-48 1.22348e-48 1.21488e-48 1.20289e-48 1.18836e-48 1.17233e-48 1.15591e-48 1.14016e-48 1.126e-48 1.11407e-48 1.10475e-48 1.0981e-48 1.0939e-48 1.09175e-48 1.09106e-48 1.09121e-48 1.09159e-48 1.09165e-48 1.091e-48 1.08936e-48 1.08667e-48 1.083e-48 1.07859e-48 1.07383e-48 1.06917e-48 1.06514e-48 1.0623e-48 1.06115e-48 1.06212e-48 1.06556e-48 1.07167e-48 1.08054e-48 1.09212e-48 1.10626e-48 1.12274e-48 1.14123e-48 1.16136e-48 1.18265e-48 1.20451e-48 1.22622e-48 1.24683e-48 1.26522e-48 1.28005e-48 1.28981e-48 1.29288e-48 1.28765e-48 1.27265e-48 1.24667e-48 1.20897e-48 1.15931e-48 1.0981e-48 1.0264e-48 9.45865e-49 8.58656e-49 7.67302e-49 6.74499e-49 5.82918e-49 4.95013e-49 4.12866e-49 3.38073e-49 2.71688e-49 2.14219e-49 1.65679e-49 1.25663e-49 9.34561e-50 6.81409e-50 4.87044e-50 3.41241e-50 2.34352e-50 1.57757e-50 1.04094e-50 6.73275e-51 4.26891e-51 2.65357e-51 1.61722e-51 9.66448e-52 5.66382e-52 3.2555e-52 1.83553e-52 1.01532e-52 5.5108e-53 2.93535e-53 1.53466e-53 7.87675e-54 3.96953e-54 1.96456e-54 9.55004e-55 4.56075e-55 2.14012e-55 9.86942e-56 4.4738e-56 1.99376e-56 8.73699e-57 3.7655e-57 1.59637e-57 6.65847e-58 2.7329e-58 1.10397e-58 4.38992e-59 1.71867e-59 6.62591e-60 2.51585e-60 9.40995e-61 3.4675e-61 1.2589e-61 4.49897e-62 1.56812e-62 4.88672e-63 0 
0 1.40692e-88 7.04231e-88 3.35694e-87 1.58275e-86 7.39212e-86 3.41985e-85 1.56709e-84 7.11203e-84 3.19648e-83 1.42264e-82 6.26935e-82 2.73539e-81 1.18154e-80 5.05208e-80 2.13819e-79 8.95647e-79 3.7128e-78 1.523e-77 6.18148e-77 2.48218e-76 9.86011e-76 3.8743e-75 1.50565e-74 5.78664e-74 2.19917e-73 8.26363e-73 3.06985e-72 1.12732e-71 4.0918e-71 1.4678e-70 5.20301e-70 1.82232e-69 6.30559e-69 2.15528e-68 7.27617e-68 2.42588e-67 7.9863e-67 2.59582e-66 8.32908e-66 2.63787e-65 8.2449e-65 2.5429e-64 7.73788e-64 2.32274e-63 6.87705e-63 2.00797e-62 5.78099e-62 1.64084e-61 4.59074e-61 1.26584e-60 3.43942e-60 9.20722e-60 2.42793e-59 6.30568e-59 1.61266e-58 4.06059e-58 1.00646e-57 2.45518e-57 5.89351e-57 1.39183e-56 3.23326e-56 7.38675e-56 1.65938e-55 3.66465e-55 7.95487e-55 1.69693e-54 3.55666e-54 7.32296e-54 1.48086e-53 2.94066e-53 5.7332e-53 1.09722e-52 2.06089e-52 3.79847e-52 6.86881e-52 1.21844e-51 2.11988e-51 3.61695e-51 6.05118e-51 9.92555e-51 1.59604e-50 2.51576e-50 3.88693e-50 5.88625e-50 8.73697e-50 1.2711e-49 1.81267e-49 2.53405e-49 3.47317e-49 4.66798e-49 6.15347e-49 7.95833e-49 1.01014e-48 1.25886e-48 1.54101e-48 1.85398e-48 2.19347e-48 2.55376e-48 2.92797e-48 3.30852e-48 3.68759e-48 4.05761e-48 4.41169e-48 4.74388e-48 5.04942e-48 5.32478e-48 5.56761e-48 5.77672e-48 5.95183e-48 6.09352e-48 6.20303e-48 6.28215e-48 6.33311e-48 6.35846e-48 6.36099e-48 6.3436e-48 6.3092e-48 6.26062e-48 6.2005e-48 6.13127e-48 6.05509e-48 5.97395e-48 5.8896e-48 5.80374e-48 5.71796e-48 5.6339e-48 5.55315e-48 5.47732e-48 5.40801e-48 5.34673e-48 5.29489e-48 5.25379e-48 5.22455e-48 5.20806e-48 5.20494e-48 5.21542e-48 5.23919e-48 5.27528e-48 5.32191e-48 5.37648e-48 5.43552e-48 5.49488e-48 5.54998e-48 5.59621e-48 5.62932e-48 5.64595e-48 5.64396e-48 5.62275e-48 5.58339e-48 5.52849e-48 5.46196e-48 5.38858e-48 5.31345e-48 5.24143e-48 5.17667e-48 5.12217e-48 5.07961e-48 5.04929e-48 5.03024e-48 5.0205e-48 5.01747e-48 5.01826e-48 5.02005e-48 5.02039e-48 5.01738e-48 5.00987e-48 4.99748e-48 4.98061e-48 4.96035e-48 4.93842e-48 4.91698e-48 4.89845e-48 4.88533e-48 4.87996e-48 4.88435e-48 4.90004e-48 4.92799e-48 4.96856e-48 5.02157e-48 5.08632e-48 5.16175e-48 5.24643e-48 5.3386e-48 5.4361e-48 5.53627e-48 5.63572e-48 5.73024e-48 5.81464e-48 5.8828e-48 5.92776e-48 5.94212e-48 5.91846e-48 5.84999e-48 5.7312e-48 5.55855e-48 5.33097e-48 5.05027e-48 4.72125e-48 4.35147e-48 3.95089e-48 3.53109e-48 3.10447e-48 2.68332e-48 2.27895e-48 1.90097e-48 1.55674e-48 1.25114e-48 9.86544e-49 7.63025e-49 5.78739e-49 4.30402e-49 3.13804e-49 2.24282e-49 1.57127e-49 1.07898e-49 7.26239e-50 4.79131e-50 3.09851e-50 1.96426e-50 1.22075e-50 7.43829e-51 4.44411e-51 2.60383e-51 1.49627e-51 8.43414e-52 4.66408e-52 2.53077e-52 1.34764e-52 7.04366e-53 3.61412e-53 1.8208e-53 9.00856e-54 4.37784e-54 2.09004e-54 9.80439e-55 4.52e-55 2.04827e-55 9.12532e-56 3.99762e-56 1.72237e-56 7.29971e-57 3.04379e-57 1.24892e-57 5.04361e-58 2.00499e-58 7.8474e-59 3.02451e-59 1.14809e-59 4.29298e-60 1.58152e-60 5.74031e-61 2.05091e-61 7.14677e-62 2.22672e-62 0 
0 6.313e-88 3.16001e-87 1.50635e-86 7.10242e-86 3.31722e-85 1.53471e-84 7.03282e-84 3.19189e-83 1.43465e-82 6.38543e-82 2.81412e-81 1.22791e-80 5.30422e-80 2.26816e-79 9.60025e-79 4.02168e-78 1.66729e-77 6.83988e-77 2.77639e-76 1.11498e-75 4.42956e-75 1.74069e-74 6.76554e-74 2.60052e-73 9.88436e-73 3.71467e-72 1.38016e-71 5.06902e-71 1.84017e-70 6.60209e-70 2.34068e-69 8.19953e-69 2.83772e-68 9.70127e-68 3.27577e-67 1.09236e-66 3.59695e-66 1.16939e-65 3.75299e-65 1.18887e-64 3.71681e-64 1.14662e-63 3.48999e-63 1.04789e-62 3.10336e-62 9.06375e-62 2.6102e-61 7.41078e-61 2.074e-60 5.72053e-60 1.55481e-59 4.16348e-59 1.09826e-58 2.85326e-58 7.29956e-58 1.83862e-57 4.55877e-57 1.11247e-56 2.67135e-56 6.311e-56 1.46659e-55 3.35181e-55 7.53234e-55 1.66409e-54 3.61358e-54 7.71132e-54 1.61684e-53 3.33021e-53 6.73686e-53 1.33827e-52 2.61007e-52 4.99691e-52 9.38888e-52 1.73107e-51 3.13134e-51 5.55637e-51 9.67011e-51 1.6504e-50 2.7619e-50 4.53144e-50 7.28838e-50 1.14909e-49 1.77575e-49 2.68962e-49 3.99283e-49 5.80975e-49 8.28592e-49 1.15843e-48 1.58782e-48 2.13407e-48 2.81315e-48 3.6381e-48 4.61742e-48 5.75366e-48 7.04225e-48 8.47099e-48 1.00202e-47 1.16634e-47 1.33692e-47 1.51027e-47 1.68284e-47 1.85118e-47 2.01214e-47 2.16304e-47 2.30172e-47 2.4266e-47 2.53666e-47 2.63135e-47 2.71059e-47 2.77465e-47 2.82411e-47 2.85981e-47 2.88275e-47 2.8941e-47 2.89513e-47 2.88715e-47 2.87148e-47 2.8494e-47 2.82211e-47 2.7907e-47 2.75616e-47 2.71936e-47 2.68113e-47 2.64221e-47 2.60334e-47 2.56524e-47 2.52865e-47 2.49429e-47 2.46288e-47 2.43511e-47 2.41163e-47 2.39301e-47 2.37976e-47 2.3723e-47 2.3709e-47 2.37567e-47 2.38646e-47 2.40284e-47 2.42402e-47 2.44879e-47 2.47559e-47 2.50254e-47 2.52756e-47 2.54855e-47 2.56359e-47 2.57115e-47 2.57026e-47 2.56064e-47 2.54278e-47 2.51788e-47 2.4877e-47 2.45442e-47 2.42035e-47 2.3877e-47 2.35836e-47 2.33369e-47 2.31444e-47 2.30075e-47 2.29217e-47 2.28782e-47 2.2865e-47 2.2869e-47 2.28775e-47 2.28791e-47 2.28655e-47 2.28313e-47 2.27749e-47 2.26979e-47 2.26056e-47 2.25056e-47 2.24078e-47 2.23233e-47 2.22633e-47 2.22386e-47 2.22582e-47 2.23291e-47 2.24557e-47 2.26397e-47 2.28801e-47 2.31739e-47 2.35161e-47 2.39003e-47 2.43185e-47 2.4761e-47 2.52158e-47 2.56674e-47 2.6097e-47 2.64808e-47 2.67913e-47 2.69967e-47 2.70633e-47 2.69575e-47 2.66481e-47 2.611e-47 2.53267e-47 2.42934e-47 2.30178e-47 2.15217e-47 1.98395e-47 1.80161e-47 1.61044e-47 1.41609e-47 1.22416e-47 1.03981e-47 8.67449e-48 7.10437e-48 5.71016e-48 4.50279e-48 3.48271e-48 2.64158e-48 1.96449e-48 1.43224e-48 1.02359e-48 7.1704e-49 4.92334e-49 3.31336e-49 2.18564e-49 1.4132e-49 8.9571e-50 5.56551e-50 3.39043e-50 2.02518e-50 1.18627e-50 6.815e-51 3.8404e-51 2.12313e-51 1.15169e-51 6.13093e-52 3.20344e-52 1.64318e-52 8.27573e-53 4.09316e-53 1.98848e-53 9.4902e-54 4.4504e-54 2.05104e-54 9.29138e-55 4.13809e-55 1.81222e-55 7.80545e-56 3.30702e-56 1.37851e-56 5.65448e-57 2.28279e-57 9.07205e-58 3.54967e-58 1.3677e-58 5.19021e-59 1.9402e-59 7.14561e-60 2.59289e-60 9.2615e-61 3.22653e-61 1.00509e-61 0 