# vtk DataFile Version 3.0
Gray-Scott Simulation Output
ASCII
DATASET STRUCTURED_POINTS
DIMENSIONS 256 256 1
SPACING 1.0 1.0 1.0
ORIGIN 0 0 0
POINT_DATA 65536
SCALARS u double
LOOKUP_TABLE default
0 0 0 0 0 0 0 0 0 0 0 0 0 0 0 0 0 0 0 0 0 0 0 0 0 0 0 0 0 0 0 0 0 0 0 0 0 0 0 0 0 0 0 0 0 0 0 0 0 0 0 0 0 0 0 0 0 0 0 0 0 0 0 0 0 0 0 0 0 0 0 0 0 0 0 0 0 0 0 0 0 0 0 0 0 0 0 0 0 0 0 0 0 0 0 0 0 0 0 0 0 0 0 0 0 0 0 0 0 0 0 0 0 0 0 0 0 0 0 0 0 0 0 0 0 0 0 0 0 0 0 0 0 0 0 0 0 0 0 0 0 0 0 0 0 0 0 0 0 0 0 0 0 0 0 0 0 0 0 0 0 0 0 0 0 0 0 0 0 0 0 0 0 0 0 0 0 0 0 0 0 0 0 0 0 0 0 0 0 0 0 0 0 0 0 0 0 0 0 0 0 0 0 0 0 0 0 0 0 0 0 0 0 0 0 0 0 0 0 0 0 0 0 0 0 0 0 0 0 0 0 0 0 0 0 0 0 0 0 0 0 0 0 0 0 0 0 0 0 0 0 0 0 0 0 0 
0 5.56164e-81 2.16122e-80 7.78965e-80 2.77042e-79 9.76511e-79 3.41214e-78 1.1819e-77 4.05795e-77 1.38096e-76 4.65774e-76 1.55689e-75 5.15707e-75 1.69269e-74 5.50497e-74 1.77379e-73 5.66225e-73 1.79054e-72 5.60864e-72 1.74011e-71 5.34695e-71 1.62711e-70 4.90311e-70 1.46299e-69 4.32202e-69 1.26409e-68 3.65995e-68 1.04893e-67 2.97546e-67 8.35335e-67 2.32076e-66 6.38007e-66 1.73543e-65 4.67022e-65 1.2433e-64 3.27406e-64 8.52759e-64 2.19662e-63 5.59541e-63 1.40934e-62 3.50965e-62 8.64039e-62 2.10272e-61 5.05786e-61 1.20238e-60 2.82466e-60 6.55679e-60 1.50374e-59 3.40695e-59 7.62473e-59 1.68539e-58 3.67917e-58 7.93089e-58 1.688e-57 3.54692e-57 7.35718e-57 1.50628e-56 3.04357e-56 6.06875e-56 1.194e-55 2.31765e-55 4.43798e-55 8.38238e-55 1.56152e-54 2.86865e-54 5.19652e-54 9.28125e-54 1.63424e-53 2.83658e-53 4.85291e-53 8.18272e-53 1.3597e-52 2.22637e-52 3.59193e-52 5.70955e-52 8.94107e-52 1.37931e-51 2.09604e-51 3.13748e-51 4.62584e-51 6.71767e-51 9.60861e-51 1.35369e-50 1.87844e-50 2.56754e-50 3.45698e-50 4.58534e-50 5.99213e-50 7.71576e-50 9.79102e-50 1.22463e-49 1.51007e-49 1.83616e-49 2.20222e-49 2.60604e-49 3.04384e-49 3.51033e-49 3.99891e-49 4.50193e-49 5.0111e-49 5.51787e-49 6.01383e-49 6.49117e-49 6.94291e-49 7.36325e-49 7.74762e-49 8.09281e-49 8.39688e-49 8.6591e-49 8.87978e-49 9.0601e-49 9.2019e-49 9.30759e-49 9.37991e-49 9.42182e-49 9.43646e-49 9.42695e-49 9.39643e-49 9.34794e-49 9.28443e-49 9.20872e-49 9.12351e-49 9.03135e-49 8.93468e-49 8.83582e-49 8.73702e-49 8.64039e-49 8.548e-49 8.46178e-49 8.38356e-49 8.31499e-49 8.25755e-49 8.21245e-49 8.18057e-49 8.1624e-49 8.15798e-49 8.1668e-49 8.18775e-49 8.21916e-49 8.25872e-49 8.30364e-49 8.3507e-49 8.39645e-49 8.43742e-49 8.47035e-49 8.49245e-49 8.50165e-49 8.49672e-49 8.47742e-49 8.44452e-49 8.39971e-49 8.34545e-49 8.28471e-49 8.22075e-49 8.15673e-49 8.09551e-49 8.0394e-49 7.98998e-49 7.94807e-49 7.91369e-49 7.88619e-49 7.86442e-49 7.84688e-49 7.83198e-49 7.81824e-49 7.80445e-49 7.78985e-49 7.77416e-49 7.7577e-49 7.74127e-49 7.72618e-49 7.71405e-49 7.70676e-49 7.70625e-49 7.71438e-49 7.73283e-49 7.76294e-49 7.80562e-49 7.86129e-49 7.92986e-49 8.01062e-49 8.10229e-49 8.20292e-49 8.30989e-49 8.41988e-49 8.52879e-49 8.63176e-49 8.72318e-49 8.79674e-49 8.84558e-49 8.86255e-49 8.84048e-49 8.77258e-49 8.65291e-49 8.47682e-49 8.24139e-49 7.94583e-49 7.5917e-49 7.18303e-49 6.72626e-49 6.22994e-49 5.70439e-49 5.16103e-49 4.61186e-49 4.06868e-49 3.54255e-49 3.04316e-49 2.57843e-49 2.15428e-49 1.77447e-49 1.4407e-49 1.15278e-49 9.08924e-50 7.06099e-50 5.40406e-50 4.07434e-50 3.0259e-50 2.21356e-50 1.59499e-50 1.13201e-50 7.91342e-51 5.4489e-51 3.69566e-51 2.46905e-51 1.62495e-51 1.05351e-51 6.72915e-52 4.23472e-52 2.62582e-52 1.6044e-52 9.66062e-53 5.73291e-53 3.35323e-53 1.93334e-53 1.09889e-53 6.15796e-54 3.40255e-54 1.85396e-54 9.96253e-55 5.28027e-55 2.76062e-55 1.42386e-55 7.24575e-56 3.63834e-56 1.80291e-56 8.81741e-57 4.2565e-57 2.0284e-57 9.54316e-58 4.43306e-58 2.03322e-58 9.20259e-59 4.09687e-59 1.76052e-59 6.49331e-60 0 
0 2.15853e-80 8.38901e-80 3.02408e-79 1.0757e-78 3.79219e-78 1.32529e-77 4.59133e-77 1.57668e-76 5.36655e-76 1.81038e-75 6.05251e-75 2.00523e-74 6.58304e-74 2.14137e-73 6.9013e-73 2.20349e-72 6.96953e-72 2.18361e-71 6.77632e-71 2.0827e-70 6.33933e-70 1.91077e-69 5.70279e-69 1.68518e-68 4.93007e-68 1.42781e-67 4.09319e-67 1.16143e-66 3.26156e-66 9.06408e-66 2.49258e-65 6.78212e-65 1.82571e-64 4.86195e-64 1.28074e-63 3.33691e-63 8.59842e-63 2.19101e-62 5.5205e-62 1.37524e-61 3.38692e-61 8.24539e-61 1.98406e-60 4.71838e-60 1.10887e-59 2.57496e-59 5.90772e-59 1.339e-58 2.99785e-58 6.62917e-58 1.44771e-57 3.12196e-57 6.6474e-57 1.39735e-56 2.89963e-56 5.93899e-56 1.20052e-55 2.39475e-55 4.71345e-55 9.1529e-55 1.75335e-54 3.31302e-54 6.17411e-54 1.13468e-53 2.05624e-53 3.67393e-53 6.47142e-53 1.12366e-52 1.92306e-52 3.24367e-52 5.39165e-52 8.83106e-52 1.42519e-51 2.26605e-51 3.54955e-51 5.47715e-51 8.32512e-51 1.24641e-50 1.83802e-50 2.66961e-50 3.81899e-50 5.38087e-50 7.46737e-50 1.02073e-49 1.37435e-49 1.82292e-49 2.3821e-49 3.06707e-49 3.89158e-49 4.86677e-49 6.00007e-49 7.2942e-49 8.74624e-49 1.03472e-48 1.20817e-48 1.39287e-48 1.58615e-48 1.78499e-48 1.98607e-48 2.186e-48 2.38146e-48 2.56937e-48 2.74699e-48 2.91205e-48 3.06279e-48 3.19797e-48 3.31689e-48 3.41927e-48 3.50529e-48 3.57545e-48 3.63049e-48 3.67138e-48 3.69922e-48 3.71518e-48 3.7205e-48 3.7164e-48 3.70412e-48 3.68483e-48 3.6597e-48 3.62983e-48 3.59626e-48 3.55999e-48 3.52197e-48 3.48312e-48 3.44429e-48 3.40634e-48 3.37005e-48 3.33619e-48 3.30548e-48 3.27856e-48 3.25601e-48 3.23831e-48 3.22581e-48 3.2187e-48 3.21699e-48 3.22048e-48 3.22875e-48 3.24113e-48 3.25672e-48 3.27442e-48 3.29296e-48 3.31099e-48 3.32713e-48 3.34012e-48 3.34885e-48 3.3525e-48 3.35059e-48 3.34303e-48 3.33012e-48 3.31253e-48 3.29122e-48 3.26736e-48 3.24225e-48 3.21711e-48 3.19309e-48 3.17108e-48 3.1517e-48 3.13528e-48 3.12182e-48 3.11107e-48 3.10256e-48 3.09571e-48 3.08989e-48 3.08451e-48 3.07909e-48 3.07335e-48 3.06717e-48 3.06067e-48 3.05418e-48 3.04821e-48 3.04341e-48 3.0405e-48 3.04027e-48 3.04344e-48 3.05068e-48 3.0625e-48 3.07929e-48 3.1012e-48 3.12819e-48 3.16001e-48 3.19614e-48 3.23584e-48 3.27807e-48 3.32154e-48 3.36464e-48 3.40548e-48 3.44185e-48 3.47126e-48 3.49103e-48 3.4983e-48 3.49026e-48 3.46421e-48 3.41777e-48 3.34908e-48 3.25696e-48 3.14105e-48 3.00195e-48 2.8412e-48 2.66132e-48 2.46568e-48 2.25833e-48 2.04379e-48 1.82681e-48 1.61206e-48 1.40393e-48 1.20627e-48 1.02226e-48 8.54246e-49 7.03743e-49 5.71444e-49 4.57288e-49 3.60581e-49 2.80131e-49 2.14401e-49 1.61645e-49 1.20046e-49 8.78141e-50 6.32702e-50 4.49002e-50 3.13842e-50 2.1607e-50 1.46524e-50 9.78744e-51 6.44009e-51 4.17446e-51 2.66575e-51 1.67717e-51 1.03969e-51 6.35087e-52 3.82296e-52 2.26799e-52 1.32616e-52 7.64368e-53 4.34315e-53 2.43301e-53 1.34389e-53 7.31999e-54 3.93212e-54 2.08333e-54 1.08881e-54 5.61379e-55 2.85572e-55 1.43343e-55 7.10048e-56 3.47133e-56 1.67513e-56 7.97978e-57 3.75293e-57 1.7427e-57 7.99e-58 3.61508e-58 1.60882e-58 6.91132e-59 2.54847e-59 0 
0 7.76883e-80 3.01976e-79 1.08876e-78 3.87352e-78 1.3658e-77 4.77412e-77 1.65427e-76 5.68196e-76 1.93438e-75 6.52694e-75 2.18259e-74 7.23268e-74 2.375e-73 7.72739e-73 2.49102e-72 7.95551e-72 2.51694e-71 7.88784e-71 2.44847e-70 7.52747e-70 2.29186e-69 6.91001e-69 2.06294e-68 6.09788e-68 1.78451e-67 5.1698e-67 1.48254e-66 4.20805e-66 1.18212e-65 3.28631e-65 9.04039e-65 2.4607e-64 6.62648e-64 1.76532e-63 4.65198e-63 1.21252e-62 3.1256e-62 7.96766e-62 2.00836e-61 5.00518e-61 1.23318e-60 3.00342e-60 7.23013e-60 1.72017e-59 4.04436e-59 9.39578e-59 2.15664e-58 4.8903e-58 1.09538e-57 2.42332e-57 5.29461e-57 1.14231e-56 2.43339e-56 5.11766e-56 1.06246e-55 2.17715e-55 4.403e-55 8.7871e-55 1.73033e-54 3.36166e-54 6.44269e-54 1.21793e-53 2.27076e-53 4.1751e-53 7.5694e-53 1.35303e-52 2.38431e-52 4.14171e-52 7.09114e-52 1.19655e-51 1.98967e-51 3.2601e-51 5.26311e-51 8.37111e-51 1.31166e-50 2.02455e-50 3.07808e-50 4.60951e-50 6.79889e-50 9.87682e-50 1.41314e-49 1.99134e-49 2.76378e-49 3.77807e-49 5.08711e-49 6.74739e-49 8.8167e-49 1.1351e-48 1.44006e-48 1.80062e-48 2.21946e-48 2.6975e-48 3.23356e-48 3.82421e-48 4.46367e-48 5.144e-48 5.85534e-48 6.58637e-48 7.32485e-48 8.05824e-48 8.77434e-48 9.46184e-48 1.01108e-47 1.07129e-47 1.1262e-47 1.17535e-47 1.21852e-47 1.25562e-47 1.28672e-47 1.31203e-47 1.33183e-47 1.34648e-47 1.35639e-47 1.362e-47 1.36375e-47 1.3621e-47 1.35749e-47 1.35034e-47 1.34109e-47 1.33013e-47 1.31784e-47 1.30457e-47 1.29067e-47 1.27648e-47 1.26231e-47 1.24845e-47 1.23521e-47 1.22286e-47 1.21165e-47 1.20183e-47 1.19361e-47 1.18716e-47 1.1826e-47 1.18002e-47 1.1794e-47 1.18069e-47 1.18373e-47 1.18826e-47 1.19397e-47 1.20045e-47 1.20724e-47 1.21385e-47 1.21977e-47 1.22453e-47 1.22773e-47 1.22908e-47 1.2284e-47 1.22565e-47 1.22094e-47 1.21452e-47 1.20674e-47 1.19804e-47 1.18888e-47 1.17971e-47 1.17095e-47 1.16293e-47 1.15587e-47 1.1499e-47 1.145e-47 1.1411e-47 1.13801e-47 1.13553e-47 1.13341e-47 1.13146e-47 1.12948e-47 1.12738e-47 1.12512e-47 1.12274e-47 1.12035e-47 1.11816e-47 1.11638e-47 1.11531e-47 1.11521e-47 1.11636e-47 1.11899e-47 1.12331e-47 1.12944e-47 1.13746e-47 1.14734e-47 1.15899e-47 1.17223e-47 1.18679e-47 1.2023e-47 1.21828e-47 1.23416e-47 1.24923e-47 1.26271e-47 1.27367e-47 1.28113e-47 1.28406e-47 1.2814e-47 1.27216e-47 1.25546e-47 1.23061e-47 1.19715e-47 1.15494e-47 1.10417e-47 1.04542e-47 9.79576e-48 9.07883e-48 8.31819e-48 7.53046e-48 6.73308e-48 5.94333e-48 5.17743e-48 4.44965e-48 3.77173e-48 3.15246e-48 2.59751e-48 2.1095e-48 1.68828e-48 1.33136e-48 1.03438e-48 7.91693e-49 5.96889e-49 4.43267e-49 3.24232e-49 2.33589e-49 1.6575e-49 1.15839e-49 7.97386e-50 5.40632e-50 3.61052e-50 2.37516e-50 1.53919e-50 9.82637e-51 6.18053e-51 3.83019e-51 2.33889e-51 1.40744e-51 8.34682e-52 4.87887e-52 2.81103e-52 1.59662e-52 8.94073e-53 4.93652e-53 2.68776e-53 1.44321e-53 7.64331e-54 3.99296e-54 2.05785e-54 1.04638e-54 5.25007e-55 2.59951e-55 1.27032e-55 6.12745e-56 2.91768e-56 1.37161e-56 6.3665e-57 2.91771e-57 1.31957e-57 5.87012e-58 2.5208e-58 9.2925e-59 0 
0 2.75895e-79 1.07258e-78 3.86782e-78 1.37633e-77 4.8539e-77 1.69701e-76 5.88148e-76 2.02056e-75 6.88036e-75 2.32208e-74 7.76675e-74 2.57436e-73 8.4555e-73 2.75181e-72 8.87308e-72 2.83452e-71 8.97016e-71 2.81194e-70 8.73104e-70 2.68501e-69 8.17738e-69 2.46625e-68 7.36512e-68 2.17776e-67 6.37517e-67 1.84753e-66 5.29993e-66 1.50486e-65 4.2289e-65 1.17607e-64 3.23646e-64 8.81261e-64 2.37408e-63 6.32709e-63 1.66798e-62 4.34927e-62 1.1216e-61 2.86034e-61 7.21292e-61 1.79836e-60 4.43274e-60 1.08008e-59 2.60123e-59 6.1916e-59 1.4564e-58 3.38505e-58 7.77344e-58 1.76351e-57 3.95197e-57 8.74725e-57 1.91208e-56 4.12732e-56 8.7965e-56 1.8509e-55 3.84451e-55 7.88192e-55 1.59481e-54 3.18435e-54 6.27365e-54 1.21943e-53 2.33821e-53 4.42232e-53 8.24914e-53 1.51744e-52 2.75238e-52 4.92216e-52 8.67773e-52 1.50805e-51 2.58308e-51 4.36046e-51 7.25367e-51 1.18898e-50 1.9202e-50 3.05519e-50 4.78871e-50 7.39364e-50 1.12443e-49 1.6843e-49 2.48485e-49 3.61049e-49 5.16665e-49 7.28161e-49 1.01071e-48 1.38173e-48 1.86053e-48 2.46773e-48 3.22438e-48 4.15081e-48 5.26528e-48 6.58245e-48 8.11183e-48 9.85644e-48 1.18116e-47 1.39643e-47 1.62932e-47 1.87687e-47 2.13545e-47 2.40091e-47 2.66876e-47 2.93443e-47 3.19349e-47 3.44184e-47 3.67591e-47 3.89274e-47 4.09012e-47 4.26652e-47 4.42112e-47 4.55373e-47 4.66466e-47 4.75469e-47 4.82491e-47 4.87665e-47 4.91141e-47 4.93077e-47 4.93635e-47 4.92978e-47 4.91265e-47 4.88653e-47 4.85288e-47 4.81314e-47 4.76867e-47 4.72074e-47 4.6706e-47 4.6194e-47 4.5683e-47 4.51837e-47 4.47065e-47 4.42615e-47 4.38579e-47 4.35042e-47 4.32082e-47 4.29759e-47 4.28121e-47 4.27193e-47 4.26976e-47 4.27446e-47 4.28545e-47 4.30187e-47 4.32252e-47 4.34597e-47 4.37053e-47 4.39442e-47 4.41583e-47 4.43308e-47 4.4447e-47 4.44962e-47 4.4472e-47 4.43732e-47 4.42038e-47 4.39726e-47 4.36924e-47 4.33789e-47 4.30487e-47 4.27185e-47 4.24031e-47 4.21145e-47 4.18609e-47 4.16462e-47 4.14706e-47 4.13307e-47 4.12201e-47 4.11311e-47 4.10554e-47 4.09852e-47 4.09142e-47 4.08383e-47 4.07564e-47 4.06701e-47 4.05836e-47 4.05038e-47 4.04393e-47 4.03999e-47 4.03958e-47 4.04368e-47 4.05316e-47 4.06872e-47 4.09086e-47 4.11981e-47 4.15553e-47 4.19768e-47 4.24561e-47 4.29836e-47 4.3546e-47 4.41264e-47 4.4704e-47 4.5254e-47 4.57473e-47 4.61512e-47 4.643e-47 4.6546e-47 4.6461e-47 4.61388e-47 4.5547e-47 4.466e-47 4.34607e-47 4.19435e-47 4.01148e-47 3.79945e-47 3.56151e-47 3.30208e-47 3.02652e-47 2.74087e-47 2.45147e-47 2.16461e-47 1.88622e-47 1.62151e-47 1.3748e-47 1.14932e-47 9.47172e-48 7.6934e-48 6.15798e-48 4.85656e-48 3.77345e-48 2.88821e-48 2.17753e-48 1.61705e-48 1.18273e-48 8.52006e-49 6.04492e-49 4.22406e-49 2.90715e-49 1.97067e-49 1.31579e-49 8.65373e-50 5.60644e-50 3.5782e-50 2.24991e-50 1.39386e-50 8.50869e-51 5.11836e-51 3.03432e-51 1.77294e-51 1.02111e-51 5.79742e-52 3.2451e-52 1.79099e-52 9.74721e-53 5.23157e-53 2.76946e-53 1.44616e-53 7.44979e-54 3.78638e-54 1.89892e-54 9.39804e-55 4.59055e-55 2.21328e-55 1.05341e-55 4.94994e-56 2.29655e-56 1.05202e-56 4.75582e-57 2.11474e-57 9.07774e-58 3.34536e-58 0 
0 9.71019e-79 3.77557e-78 1.36176e-77 4.84667e-77 1.70962e-76 5.97836e-76 2.07242e-75 7.12128e-75 2.42547e-74 8.1877e-74 2.73923e-73 9.08166e-73 2.98362e-72 9.71258e-72 3.13261e-71 1.00099e-70 3.16862e-70 9.93575e-70 3.08593e-69 9.49285e-69 2.89199e-68 8.72481e-68 2.60638e-67 7.70922e-67 2.25755e-66 6.54463e-66 1.87809e-65 5.33453e-65 1.49964e-64 4.17208e-64 1.14857e-63 3.12865e-63 8.43178e-63 2.24803e-62 5.9288e-62 1.54658e-61 3.99005e-61 1.01799e-60 2.56819e-60 6.40598e-60 1.57971e-59 3.85086e-59 9.27862e-59 2.20958e-58 5.19988e-58 1.20917e-57 2.77809e-57 6.30557e-57 1.41376e-56 3.13076e-56 6.84704e-56 1.47872e-55 3.15318e-55 6.63811e-55 1.37951e-54 2.82969e-54 5.72846e-54 1.14439e-53 2.25578e-53 4.38688e-53 8.41594e-53 1.59253e-52 2.9721e-52 5.4699e-52 9.92632e-52 1.776e-51 3.13254e-51 5.44634e-51 9.333e-51 1.57617e-50 2.62307e-50 4.30132e-50 6.94928e-50 1.10609e-49 1.73427e-49 2.67853e-49 4.07471e-49 6.10519e-49 9.00918e-49 1.30931e-48 1.87396e-48 2.64144e-48 3.6668e-48 5.01319e-48 6.75056e-48 8.95357e-48 1.16983e-47 1.5058e-47 1.90984e-47 2.38718e-47 2.94116e-47 3.57274e-47 4.2801e-47 5.05837e-47 5.89962e-47 6.79302e-47 7.72529e-47 8.68126e-47 9.64468e-47 1.0599e-46 1.15282e-46 1.24177e-46 1.32546e-46 1.40286e-46 1.47319e-46 1.53592e-46 1.59079e-46 1.63775e-46 1.67694e-46 1.70866e-46 1.73331e-46 1.75139e-46 1.76344e-46 1.77004e-46 1.77175e-46 1.76917e-46 1.76286e-46 1.75338e-46 1.74124e-46 1.72695e-46 1.711e-46 1.69383e-46 1.67589e-46 1.65758e-46 1.63931e-46 1.62147e-46 1.60442e-46 1.58852e-46 1.57411e-46 1.56148e-46 1.55091e-46 1.54262e-46 1.53678e-46 1.53348e-46 1.53272e-46 1.53442e-46 1.53837e-46 1.54426e-46 1.55167e-46 1.56007e-46 1.56888e-46 1.57746e-46 1.58514e-46 1.59133e-46 1.59551e-46 1.59729e-46 1.59645e-46 1.59293e-46 1.58688e-46 1.57862e-46 1.56862e-46 1.55741e-46 1.54562e-46 1.53383e-46 1.52257e-46 1.51228e-46 1.50323e-46 1.49559e-46 1.48934e-46 1.48437e-46 1.48044e-46 1.47729e-46 1.4746e-46 1.4721e-46 1.46956e-46 1.46685e-46 1.46391e-46 1.46081e-46 1.4577e-46 1.45482e-46 1.45249e-46 1.45106e-46 1.4509e-46 1.45235e-46 1.45573e-46 1.46129e-46 1.46922e-46 1.47959e-46 1.49239e-46 1.50751e-46 1.52472e-46 1.54367e-46 1.5639e-46 1.58481e-46 1.60566e-46 1.62556e-46 1.64348e-46 1.65826e-46 1.66859e-46 1.67314e-46 1.67052e-46 1.65942e-46 1.63867e-46 1.60731e-46 1.56472e-46 1.51067e-46 1.44538e-46 1.36952e-46 1.28427e-46 1.19118e-46 1.0922e-46 9.89479e-47 8.85313e-47 7.81977e-47 6.81615e-47 5.86124e-47 4.97072e-47 4.15641e-47 3.42602e-47 2.78323e-47 2.22805e-47 1.75734e-47 1.36551e-47 1.04519e-47 7.88009e-48 5.8516e-48 4.27966e-48 3.08266e-48 2.18685e-48 1.52789e-48 1.05136e-48 7.12539e-49 4.75642e-49 3.12742e-49 2.02558e-49 1.29241e-49 8.12385e-50 5.03119e-50 3.07017e-50 1.84617e-50 1.09405e-50 6.38997e-51 3.67874e-51 2.08777e-51 1.16813e-51 6.4442e-52 3.50561e-52 1.88071e-52 9.95148e-53 5.19411e-53 2.67448e-53 1.35869e-53 6.81084e-54 3.36922e-54 1.64496e-54 7.92729e-55 3.77126e-55 1.77127e-55 8.21414e-56 3.76108e-56 1.69949e-56 7.55367e-57 3.24119e-57 1.19409e-57 0 
0 3.38784e-78 1.31749e-77 4.75282e-77 1.69193e-76 5.96935e-76 2.08787e-75 7.23927e-75 2.48813e-74 8.47642e-74 2.86208e-73 9.57756e-73 3.17616e-72 1.04374e-71 3.39859e-71 1.09645e-70 3.50454e-70 1.10968e-69 3.48061e-69 1.08136e-68 3.32748e-68 1.01403e-67 3.06021e-67 9.14484e-67 2.70579e-66 7.92632e-66 2.29864e-65 6.59871e-65 1.87499e-64 5.27293e-64 1.46752e-63 4.04163e-63 1.10136e-62 2.9694e-62 7.9201e-62 2.08967e-61 5.45343e-61 1.40755e-60 3.59271e-60 9.06779e-60 2.26286e-59 5.58279e-59 1.36156e-58 3.28223e-58 7.81998e-58 1.8412e-57 4.28362e-57 9.84663e-57 2.23607e-56 5.01601e-56 1.11137e-55 2.43184e-55 5.25466e-55 1.12108e-54 2.36136e-54 4.90989e-54 1.00767e-53 2.04102e-53 4.07957e-53 8.04577e-53 1.56551e-52 3.00491e-52 5.68911e-52 1.06229e-51 1.95606e-51 3.55148e-51 6.35741e-51 1.12188e-50 1.95146e-50 3.34562e-50 5.65267e-50 9.41128e-50 1.54391e-49 2.49535e-49 3.97325e-49 6.23201e-49 9.62832e-49 1.46516e-48 2.19588e-48 3.24117e-48 4.71143e-48 6.74453e-48 9.50816e-48 1.32006e-47 1.80489e-47 2.43047e-47 3.22362e-47 4.2116e-47 5.42065e-47 6.87415e-47 8.59061e-47 1.05817e-46 1.28504e-46 1.53896e-46 1.81812e-46 2.11962e-46 2.43949e-46 2.77292e-46 3.11443e-46 3.45816e-46 3.79816e-46 4.12873e-46 4.44463e-46 4.74137e-46 5.01529e-46 5.26369e-46 5.48482e-46 5.6778e-46 5.84258e-46 5.97975e-46 6.09043e-46 6.17613e-46 6.23866e-46 6.27997e-46 6.3021e-46 6.30713e-46 6.29712e-46 6.27405e-46 6.23987e-46 6.19643e-46 6.14548e-46 6.08871e-46 6.02771e-46 5.96401e-46 5.89907e-46 5.83431e-46 5.77107e-46 5.71067e-46 5.65435e-46 5.60329e-46 5.55857e-46 5.52115e-46 5.49182e-46 5.47116e-46 5.4595e-46 5.45688e-46 5.46295e-46 5.47703e-46 5.498e-46 5.52436e-46 5.55427e-46 5.58562e-46 5.61611e-46 5.64346e-46 5.66552e-46 5.68044e-46 5.68683e-46 5.68389e-46 5.67147e-46 5.65007e-46 5.62082e-46 5.58536e-46 5.54567e-46 5.50389e-46 5.46214e-46 5.42229e-46 5.38586e-46 5.35389e-46 5.32689e-46 5.30485e-46 5.28732e-46 5.27351e-46 5.2624e-46 5.25294e-46 5.24411e-46 5.23514e-46 5.22551e-46 5.21506e-46 5.204e-46 5.1929e-46 5.18263e-46 5.17429e-46 5.16914e-46 5.16848e-46 5.17357e-46 5.18553e-46 5.20526e-46 5.23339e-46 5.27023e-46 5.31576e-46 5.36955e-46 5.43083e-46 5.49838e-46 5.57058e-46 5.64532e-46 5.72e-46 5.79148e-46 5.85611e-46 5.90973e-46 5.94779e-46 5.96543e-46 5.95775e-46 5.92e-46 5.84794e-46 5.73813e-46 5.58826e-46 5.3974e-46 5.16624e-46 4.89715e-46 4.5942e-46 4.26297e-46 3.9103e-46 3.54391e-46 3.172e-46 2.80272e-46 2.4438e-46 2.10205e-46 1.78315e-46 1.49138e-46 1.22955e-46 9.99032e-47 7.9986e-47 6.30941e-47 4.90292e-47 3.75293e-47 2.82947e-47 2.10103e-47 1.53652e-47 1.10665e-47 7.8496e-48 5.48341e-48 3.7725e-48 2.55619e-48 1.70593e-48 1.12138e-48 7.26091e-49 4.63133e-49 2.91022e-49 1.80171e-49 1.09905e-49 6.60633e-50 3.9134e-50 2.28475e-50 1.31479e-50 7.45853e-51 4.17129e-51 2.30014e-51 1.25069e-51 6.70667e-52 3.54708e-52 1.8505e-52 9.52382e-53 4.83598e-53 2.42302e-53 1.19806e-53 5.84647e-54 2.81614e-54 1.33909e-54 6.28638e-55 2.91387e-55 1.33357e-55 6.02308e-56 2.67585e-56 1.1477e-56 4.2269e-57 0 
0 1.17169e-77 4.55735e-77 1.64438e-76 5.85493e-76 2.06614e-75 7.22824e-75 2.50681e-74 8.6179e-74 2.93659e-73 9.91792e-73 3.31973e-72 1.10119e-71 3.61967e-71 1.17894e-70 3.80456e-70 1.21639e-69 3.85271e-69 1.2088e-68 3.75668e-68 1.15634e-67 3.52503e-67 1.06416e-66 3.1811e-66 9.41557e-66 2.75916e-65 8.0045e-65 2.2987e-64 6.5341e-64 1.83826e-63 5.11812e-63 1.41012e-62 3.84422e-62 1.03688e-61 2.76678e-61 7.30314e-61 1.90675e-60 4.9236e-60 1.2573e-59 3.17482e-59 7.92648e-59 1.9565e-58 4.77393e-58 1.15139e-57 2.74458e-57 6.46534e-57 1.50495e-56 3.46118e-56 7.86409e-56 1.76502e-55 3.91273e-55 8.56626e-55 1.85198e-54 3.95333e-54 8.33155e-54 1.7333e-53 3.55924e-53 7.21319e-53 1.44256e-52 2.84658e-52 5.54179e-52 1.06429e-51 2.01608e-51 3.76652e-51 6.93919e-51 1.26056e-50 2.25765e-50 3.98604e-50 6.93696e-50 1.18986e-49 2.01129e-49 3.35016e-49 5.49826e-49 8.89029e-49 1.41612e-48 2.222e-48 3.43412e-48 5.22743e-48 7.83678e-48 1.15703e-47 1.68226e-47 2.40867e-47 3.39617e-47 4.71559e-47 6.44805e-47 8.6833e-47 1.15169e-46 1.50458e-46 1.93632e-46 2.45516e-46 3.06761e-46 3.77769e-46 4.58629e-46 5.49067e-46 6.48415e-46 7.55613e-46 8.69233e-46 9.87535e-46 1.10855e-45 1.23019e-45 1.35033e-45 1.46695e-45 1.57821e-45 1.68253e-45 1.77863e-45 1.86561e-45 1.94286e-45 2.01012e-45 2.06741e-45 2.11496e-45 2.1532e-45 2.1827e-45 2.20409e-45 2.21809e-45 2.2254e-45 2.22678e-45 2.22293e-45 2.21456e-45 2.20234e-45 2.18691e-45 2.16889e-45 2.14885e-45 2.12735e-45 2.10493e-45 2.08208e-45 2.05931e-45 2.03708e-45 2.01586e-45 1.99607e-45 1.97814e-45 1.96243e-45 1.9493e-45 1.939e-45 1.93175e-45 1.92768e-45 1.92677e-45 1.92893e-45 1.93391e-45 1.94131e-45 1.95062e-45 1.96117e-45 1.97223e-45 1.98299e-45 1.99265e-45 2.00044e-45 2.00572e-45 2.008e-45 2.00699e-45 2.00264e-45 1.99513e-45 1.98485e-45 1.97239e-45 1.95845e-45 1.94377e-45 1.9291e-45 1.91511e-45 1.90234e-45 1.89113e-45 1.88167e-45 1.87396e-45 1.86784e-45 1.86301e-45 1.85914e-45 1.85584e-45 1.85275e-45 1.8496e-45 1.84621e-45 1.84252e-45 1.83861e-45 1.83468e-45 1.83104e-45 1.82808e-45 1.82624e-45 1.82599e-45 1.82776e-45 1.83195e-45 1.83889e-45 1.8488e-45 1.86178e-45 1.87783e-45 1.89682e-45 1.91847e-45 1.94236e-45 1.96792e-45 1.99442e-45 2.02096e-45 2.04644e-45 2.06957e-45 2.08889e-45 2.1028e-45 2.10958e-45 2.10748e-45 2.09481e-45 2.07006e-45 2.03197e-45 1.97971e-45 1.9129e-45 1.83177e-45 1.73713e-45 1.63038e-45 1.51349e-45 1.38886e-45 1.25924e-45 1.12752e-45 9.96622e-46 8.69283e-46 7.47951e-46 6.34656e-46 5.3094e-46 4.37819e-46 3.55798e-46 2.84904e-46 2.2476e-46 1.74668e-46 1.33704e-46 1.00804e-46 7.48493e-47 5.47346e-47 3.94176e-47 2.79555e-47 1.95254e-47 1.34305e-47 9.09829e-48 6.07042e-48 3.98924e-48 2.58226e-48 1.64655e-48 1.0343e-48 6.40102e-49 3.90317e-49 2.34525e-49 1.38869e-49 8.10415e-50 4.66162e-50 2.64325e-50 1.4776e-50 8.14402e-51 4.42619e-51 2.37235e-51 1.2541e-51 6.53942e-52 3.36394e-52 1.70728e-52 8.54994e-53 4.2254e-53 2.06096e-53 9.92235e-54 4.71577e-54 2.21274e-54 1.02515e-54 4.68945e-55 2.11697e-55 9.40061e-56 4.03028e-56 1.48384e-56 0 
0 4.01671e-77 1.56259e-76 5.63928e-76 2.00834e-75 7.08877e-75 2.48051e-74 8.60462e-74 2.9588e-73 1.00847e-72 3.40683e-72 1.14063e-71 3.7846e-71 1.24436e-70 4.05407e-70 1.30866e-69 4.18527e-69 1.32602e-68 4.1617e-68 1.29378e-67 3.98365e-67 1.2148e-66 3.66854e-66 1.09703e-65 3.24819e-65 9.52203e-65 2.76343e-64 7.93893e-64 2.25753e-63 6.35371e-63 1.76973e-62 4.87789e-62 1.33035e-61 3.58982e-61 9.58317e-61 2.53068e-60 6.61025e-60 1.70769e-59 4.36283e-59 1.10219e-58 2.75313e-58 6.79895e-58 1.65979e-57 4.00517e-57 9.55208e-57 2.25133e-56 5.24323e-56 1.20651e-55 2.74278e-55 6.15926e-55 1.36615e-54 2.9926e-54 6.47344e-54 1.38263e-53 2.9155e-53 6.06887e-53 1.24692e-52 2.52845e-52 5.05949e-52 9.98952e-52 1.94588e-51 3.73915e-51 7.08701e-51 1.32476e-50 2.44198e-50 4.43846e-50 7.95347e-50 1.40497e-49 2.44634e-49 4.19817e-49 7.09986e-49 1.18316e-48 1.94267e-48 3.1425e-48 5.00769e-48 7.86047e-48 1.21528e-47 1.85052e-47 2.77507e-47 4.09825e-47 5.96007e-47 8.53535e-47 1.20367e-46 1.6715e-46 2.28578e-46 3.07828e-46 4.08277e-46 5.3335e-46 6.86325e-46 8.70097e-46 1.08693e-45 1.33819e-45 1.62413e-45 1.94371e-45 2.29448e-45 2.67262e-45 3.07298e-45 3.48934e-45 3.91471e-45 4.34165e-45 4.76267e-45 5.17067e-45 5.55919e-45 5.92275e-45 6.25701e-45 6.55883e-45 6.82629e-45 7.05857e-45 7.25586e-45 7.41913e-45 7.54996e-45 7.65041e-45 7.7228e-45 7.76961e-45 7.79341e-45 7.79675e-45 7.78213e-45 7.75198e-45 7.70862e-45 7.65425e-45 7.59099e-45 7.52084e-45 7.4457e-45 7.36741e-45 7.28771e-45 7.20831e-45 7.13084e-45 7.05688e-45 6.98795e-45 6.92547e-45 6.87078e-45 6.82503e-45 6.7892e-45 6.76401e-45 6.74986e-45 6.74678e-45 6.7544e-45 6.77185e-45 6.79777e-45 6.83033e-45 6.86726e-45 6.90596e-45 6.94363e-45 6.97745e-45 7.00475e-45 7.02328e-45 7.03133e-45 7.02789e-45 7.01278e-45 6.98664e-45 6.95086e-45 6.90744e-45 6.85885e-45 6.80771e-45 6.75663e-45 6.70794e-45 6.66347e-45 6.62451e-45 6.59167e-45 6.56493e-45 6.54371e-45 6.52703e-45 6.51363e-45 6.50219e-45 6.49148e-45 6.48051e-45 6.46868e-45 6.45578e-45 6.44208e-45 6.42829e-45 6.41549e-45 6.40505e-45 6.39854e-45 6.39757e-45 6.40368e-45 6.41828e-45 6.44247e-45 6.47706e-45 6.52244e-45 6.5786e-45 6.64507e-45 6.72091e-45 6.80471e-45 6.89449e-45 6.98774e-45 7.08131e-45 7.17141e-45 7.25358e-45 7.32271e-45 7.37317e-45 7.39895e-45 7.39388e-45 7.352e-45 7.26788e-45 7.13707e-45 6.95648e-45 6.72475e-45 6.44248e-45 6.11243e-45 5.73946e-45 5.33037e-45 4.89361e-45 4.43878e-45 3.97609e-45 3.51582e-45 3.06768e-45 2.64036e-45 2.24106e-45 1.8753e-45 1.54673e-45 1.2572e-45 1.00684e-45 7.94381e-46 6.17384e-46 4.72606e-46 3.56312e-46 2.64561e-46 1.93449e-46 1.39299e-46 9.87789e-47 6.89796e-47 4.74379e-47 3.21286e-47 2.14308e-47 1.40795e-47 9.11089e-48 5.80753e-48 3.64678e-48 2.25605e-48 1.37514e-48 8.25926e-49 4.88847e-49 2.85157e-49 1.63952e-49 9.29219e-50 5.19196e-50 2.86025e-50 1.55376e-50 8.32372e-51 4.39798e-51 2.29214e-51 1.1785e-51 5.97812e-52 2.99226e-52 1.47802e-52 7.20541e-53 3.46722e-53 1.64702e-53 7.72424e-54 3.57678e-54 1.63534e-54 7.3788e-55 3.27504e-55 1.40347e-55 5.16545e-56 0 
0 1.36479e-76 5.31033e-76 1.91686e-75 6.82807e-75 2.41063e-74 8.43728e-74 2.9275e-73 1.0069e-72 3.43278e-72 1.15996e-71 3.88468e-71 1.28929e-70 4.24029e-70 1.38187e-69 4.46202e-69 1.42744e-68 4.52396e-68 1.4203e-67 4.41682e-67 1.36043e-66 4.14999e-66 1.25369e-65 3.75032e-65 1.11084e-64 3.25763e-64 9.45772e-64 2.71813e-63 7.73241e-63 2.17714e-62 6.0666e-62 1.67285e-61 4.56435e-61 1.23219e-60 3.29085e-60 8.69433e-60 2.27206e-59 5.87241e-59 1.50102e-58 3.79391e-58 9.48147e-58 2.34266e-57 5.72198e-57 1.38147e-56 3.29645e-56 7.77358e-56 1.81141e-55 4.17051e-55 9.48613e-55 2.13143e-54 4.73026e-54 1.03678e-53 2.24399e-53 4.79561e-53 1.01182e-52 2.10743e-52 4.33249e-52 8.79042e-52 1.76002e-51 3.47704e-51 6.77698e-51 1.303e-50 2.47108e-50 4.62178e-50 8.52438e-50 1.55023e-49 2.77946e-49 4.91255e-49 8.55829e-49 1.46945e-48 2.48635e-48 4.1454e-48 6.80965e-48 1.10204e-47 1.75688e-47 2.75884e-47 4.26695e-47 6.49957e-47 9.74995e-47 1.44029e-46 2.09513e-46 3.00105e-46 4.23284e-46 5.87881e-46 8.03999e-46 1.0828e-45 1.43612e-45 1.87597e-45 2.41378e-45 3.05963e-45 3.82131e-45 4.70344e-45 5.70667e-45 6.82706e-45 8.05574e-45 9.37895e-45 1.07784e-44 1.22319e-44 1.37149e-44 1.52011e-44 1.66643e-44 1.80796e-44 1.94248e-44 2.06809e-44 2.18332e-44 2.28712e-44 2.37887e-44 2.45834e-44 2.52563e-44 2.58113e-44 2.62544e-44 2.65928e-44 2.68349e-44 2.69895e-44 2.70654e-44 2.70716e-44 2.70167e-44 2.69089e-44 2.67562e-44 2.65662e-44 2.63459e-44 2.61023e-44 2.58419e-44 2.55708e-44 2.52951e-44 2.50205e-44 2.47527e-44 2.44972e-44 2.42591e-44 2.40433e-44 2.38544e-44 2.36965e-44 2.35728e-44 2.34859e-44 2.34373e-44 2.34269e-44 2.34536e-44 2.35142e-44 2.36042e-44 2.37172e-44 2.38454e-44 2.39797e-44 2.41105e-44 2.42279e-44 2.43228e-44 2.43873e-44 2.44155e-44 2.44039e-44 2.43519e-44 2.42617e-44 2.41381e-44 2.39881e-44 2.38202e-44 2.36435e-44 2.34671e-44 2.3299e-44 2.31456e-44 2.30113e-44 2.28982e-44 2.28063e-44 2.27334e-44 2.26762e-44 2.26302e-44 2.2591e-44 2.25541e-44 2.25163e-44 2.24753e-44 2.24306e-44 2.2383e-44 2.23349e-44 2.22903e-44 2.22539e-44 2.2231e-44 2.22273e-44 2.22483e-44 2.22986e-44 2.23823e-44 2.25021e-44 2.26594e-44 2.28542e-44 2.3085e-44 2.33486e-44 2.36401e-44 2.3953e-44 2.42784e-44 2.46058e-44 2.4922e-44 2.52116e-44 2.54571e-44 2.56389e-44 2.57359e-44 2.57268e-44 2.55904e-44 2.53078e-44 2.4863e-44 2.42449e-44 2.34483e-44 2.24749e-44 2.13338e-44 2.00418e-44 1.86221e-44 1.71042e-44 1.55214e-44 1.39094e-44 1.23041e-44 1.07398e-44 9.24683e-45 7.85083e-45 6.57125e-45 5.42117e-45 4.40721e-45 3.5301e-45 2.7855e-45 2.16502e-45 1.65738e-45 1.24954e-45 9.27742e-46 6.78321e-46 4.8839e-46 3.46274e-46 2.41767e-46 1.6623e-46 1.12557e-46 7.50587e-47 4.9297e-47 3.189e-47 2.03206e-47 1.27554e-47 7.88796e-48 4.80602e-48 2.88533e-48 1.70701e-48 9.9529e-49 5.71979e-49 3.24021e-49 1.80956e-49 9.96392e-50 5.40991e-50 2.89668e-50 1.52972e-50 7.96842e-51 4.09479e-51 2.07605e-51 1.03859e-51 5.12736e-52 2.49828e-52 1.20153e-52 5.70456e-53 2.67393e-53 1.23754e-53 5.65524e-54 2.55038e-54 1.13141e-54 4.84629e-55 1.78304e-55 0 