# vtk DataFile Version 3.0
Gray-Scott Simulation Output
ASCII
DATASET STRUCTURED_POINTS
DIMENSIONS 256 256 1
SPACING 1.0 1.0 1.0
ORIGIN 0 0 0
POINT_DATA 65536
SCALARS u double
LOOKUP_TABLE default
0 0 0 0 0 0 0 0 0 0 0 0 0 0 0 0 0 0 0 0 0 0 0 0 0 0 0 0 0 0 0 0 0 0 0 0 0 0 0 0 0 0 0 0 0 0 0 0 0 0 0 0 0 0 0 0 0 0 0 0 0 0 0 0 0 0 0 0 0 0 0 0 0 0 0 0 0 0 0 0 0 0 0 0 0 0 0 0 0 0 0 0 0 0 0 0 0 0 0 0 0 0 0 0 0 0 0 0 0 0 0 0 0 0 0 0 0 0 0 0 0 0 0 0 0 0 0 0 0 0 0 0 0 0 0 0 0 0 0 0 0 0 0 0 0 0 0 0 0 0 0 0 0 0 0 0 0 0 0 0 0 0 0 0 0 0 0 0 0 0 0 0 0 0 0 0 0 0 0 0 0 0 0 0 0 0 0 0 0 0 0 0 0 0 0 0 0 0 0 0 0 0 0 0 0 0 0 0 0 0 0 0 0 0 0 0 0 0 0 0 0 0 0 0 0 0 0 0 0 0 0 0 0 0 0 0 0 0 0 0 0 0 0 0 0 0 0 0 0 0 0 0 0 0 0 0 
0 3.86938e-86 1.68073e-85 6.86242e-85 2.76872e-84 1.10685e-83 4.38472e-83 1.72114e-82 6.69388e-82 2.57928e-81 9.8456e-81 3.72287e-80 1.39436e-79 5.17243e-79 1.90023e-78 6.91315e-78 2.49039e-77 8.88269e-77 3.13669e-76 1.09651e-75 3.79429e-75 1.29953e-74 4.40496e-74 1.47761e-73 4.90455e-73 1.61072e-72 5.23339e-72 1.68208e-71 5.34769e-71 1.68152e-70 5.22893e-70 1.60787e-69 4.88847e-69 1.46938e-68 4.36607e-68 1.28231e-67 3.72217e-67 1.0677e-66 3.02629e-66 8.4747e-66 2.34446e-65 6.40645e-65 1.729e-64 4.60811e-64 1.21269e-63 3.15082e-63 8.08145e-63 2.04593e-62 5.11183e-62 1.26034e-61 3.06597e-61 7.35801e-61 1.74184e-60 4.06681e-60 9.36349e-60 2.12569e-59 4.75755e-59 1.0496e-58 2.28228e-58 4.89046e-58 1.03255e-57 2.14777e-57 4.40073e-57 8.88092e-57 1.76493e-56 3.45363e-56 6.65337e-56 1.26173e-55 2.35502e-55 4.32581e-55 7.81863e-55 1.39037e-54 2.43229e-54 4.1854e-54 7.0835e-54 1.17897e-53 1.92958e-53 3.1052e-53 4.91305e-53 7.64223e-53 1.16862e-52 1.7567e-52 2.59585e-52 3.77069e-52 5.38428e-52 7.55816e-52 1.04307e-51 1.41533e-51 1.88843e-51 2.47803e-51 3.19857e-51 4.06203e-51 5.0767e-51 6.24601e-51 7.56758e-51 9.0326e-51 1.06258e-50 1.23257e-50 1.41056e-50 1.59349e-50 1.77807e-50 1.96096e-50 2.13893e-50 2.30903e-50 2.46871e-50 2.61587e-50 2.74895e-50 2.86688e-50 2.96909e-50 3.05544e-50 3.12619e-50 3.18188e-50 3.22331e-50 3.2515e-50 3.26756e-50 3.27274e-50 3.26829e-50 3.25549e-50 3.23561e-50 3.20984e-50 3.17933e-50 3.14515e-50 3.1083e-50 3.06972e-50 3.0303e-50 2.99089e-50 2.95231e-50 2.91533e-50 2.88073e-50 2.84924e-50 2.82154e-50 2.79827e-50 2.77995e-50 2.76704e-50 2.75984e-50 2.75846e-50 2.76282e-50 2.77258e-50 2.78712e-50 2.80554e-50 2.82663e-50 2.84897e-50 2.87095e-50 2.89089e-50 2.9072e-50 2.91844e-50 2.92352e-50 2.9218e-50 2.91314e-50 2.89791e-50 2.877e-50 2.8517e-50 2.8236e-50 2.79437e-50 2.76566e-50 2.73891e-50 2.71525e-50 2.69537e-50 2.67957e-50 2.66769e-50 2.65925e-50 2.65351e-50 2.64957e-50 2.64652e-50 2.64353e-50 2.63992e-50 2.63527e-50 2.62943e-50 2.62251e-50 2.6149e-50 2.60723e-50 2.60028e-50 2.59493e-50 2.59211e-50 2.59269e-50 2.59745e-50 2.607e-50 2.62174e-50 2.64186e-50 2.66734e-50 2.6979e-50 2.73304e-50 2.77206e-50 2.81398e-50 2.85757e-50 2.90134e-50 2.94346e-50 2.98175e-50 3.01376e-50 3.03673e-50 3.04771e-50 3.04372e-50 3.02191e-50 2.97976e-50 2.91533e-50 2.82746e-50 2.71594e-50 2.58161e-50 2.42644e-50 2.25339e-50 2.06636e-50 1.86988e-50 1.66885e-50 1.46827e-50 1.27288e-50 1.08691e-50 9.13831e-51 7.56274e-51 6.15908e-51 4.93488e-51 3.88933e-51 3.01468e-51 2.29781e-51 1.72205e-51 1.26882e-51 9.19064e-52 6.54437e-52 4.58094e-52 3.15211e-52 2.13213e-52 1.41775e-52 9.26784e-53 5.95618e-53 3.76352e-53 2.33824e-53 1.42852e-53 8.58267e-54 5.07154e-54 2.94768e-54 1.68536e-54 9.48031e-55 5.24713e-55 2.85787e-55 1.53193e-55 8.08282e-56 4.1983e-56 2.14697e-56 1.08113e-56 5.36151e-57 2.61886e-57 1.26012e-57 5.97376e-58 2.79045e-58 1.28456e-58 5.82834e-59 2.60678e-59 1.14946e-59 4.99769e-60 2.14284e-60 9.06166e-61 3.77974e-61 1.55479e-61 6.29482e-62 2.47358e-62 8.50284e-63 0 
0 1.67864e-85 7.29195e-85 2.97754e-84 1.20142e-83 4.80331e-83 1.90298e-82 7.47052e-82 2.90574e-81 1.11975e-80 4.27477e-80 1.61658e-79 6.05542e-79 2.24656e-78 8.25439e-78 3.00338e-77 1.08208e-76 3.8601e-76 1.36329e-75 4.76646e-75 1.64961e-74 5.65075e-74 1.91573e-73 6.42725e-73 2.13374e-72 7.00876e-72 2.27764e-71 7.32202e-71 2.32829e-70 7.32255e-70 2.27752e-69 7.00475e-69 2.13015e-68 6.40428e-68 1.90338e-67 5.59153e-67 1.62345e-66 4.65802e-66 1.3206e-65 3.69911e-65 1.0236e-64 2.79783e-64 7.55297e-64 2.01358e-63 5.30053e-63 1.37759e-62 3.53437e-62 8.95045e-62 2.23698e-61 5.51704e-61 1.34253e-60 3.22295e-60 7.63204e-60 1.78249e-59 4.10537e-59 9.32306e-59 2.0873e-58 4.60652e-58 1.00198e-57 2.14777e-57 4.53624e-57 9.43888e-57 1.93465e-56 3.90555e-56 7.76421e-56 1.51981e-55 2.92885e-55 5.55602e-55 1.03736e-54 1.90607e-54 3.44616e-54 6.13007e-54 1.0727e-53 1.84638e-53 3.12571e-53 5.20374e-53 8.51887e-53 1.37123e-52 2.17003e-52 3.37614e-52 5.16362e-52 7.76333e-52 1.14734e-51 1.66681e-51 2.38033e-51 3.34163e-51 4.61188e-51 6.25797e-51 8.3498e-51 1.09564e-50 1.41415e-50 1.79575e-50 2.24407e-50 2.76057e-50 3.34411e-50 3.99075e-50 4.69364e-50 5.44324e-50 6.2277e-50 7.03345e-50 7.84595e-50 8.65044e-50 9.43273e-50 1.01799e-49 1.08807e-49 1.15261e-49 1.21092e-49 1.26255e-49 1.30726e-49 1.345e-49 1.37589e-49 1.40018e-49 1.41823e-49 1.43047e-49 1.43742e-49 1.43961e-49 1.43759e-49 1.43193e-49 1.42317e-49 1.41184e-49 1.39844e-49 1.38345e-49 1.36729e-49 1.35037e-49 1.3331e-49 1.31582e-49 1.29891e-49 1.28271e-49 1.26755e-49 1.25375e-49 1.24162e-49 1.23142e-49 1.2234e-49 1.21775e-49 1.2146e-49 1.214e-49 1.21592e-49 1.22021e-49 1.22659e-49 1.23468e-49 1.24394e-49 1.25375e-49 1.2634e-49 1.27217e-49 1.27933e-49 1.28427e-49 1.28651e-49 1.28576e-49 1.28197e-49 1.27529e-49 1.26613e-49 1.25504e-49 1.24271e-49 1.2299e-49 1.21732e-49 1.20561e-49 1.19525e-49 1.18655e-49 1.17964e-49 1.17446e-49 1.17078e-49 1.16828e-49 1.16657e-49 1.16525e-49 1.16394e-49 1.16236e-49 1.16032e-49 1.15775e-49 1.1547e-49 1.15135e-49 1.14797e-49 1.1449e-49 1.14254e-49 1.14128e-49 1.14153e-49 1.1436e-49 1.14778e-49 1.15424e-49 1.16307e-49 1.17424e-49 1.18765e-49 1.20308e-49 1.22021e-49 1.23862e-49 1.25777e-49 1.27701e-49 1.29554e-49 1.31241e-49 1.32653e-49 1.33671e-49 1.34163e-49 1.33999e-49 1.33054e-49 1.31215e-49 1.28396e-49 1.24546e-49 1.19654e-49 1.13756e-49 1.06939e-49 9.93308e-50 9.11032e-50 8.24554e-50 7.36037e-50 6.4768e-50 5.61577e-50 4.79594e-50 4.03276e-50 3.33782e-50 2.71856e-50 2.17837e-50 1.71693e-50 1.33086e-50 1.0144e-50 7.60219e-51 5.60118e-51 4.05701e-51 2.88867e-51 2.02184e-51 1.39107e-51 9.4082e-52 6.25507e-52 4.08829e-52 2.62697e-52 1.65959e-52 1.03088e-52 6.2967e-53 3.78226e-53 2.23442e-53 1.29837e-53 7.42164e-54 4.17365e-54 2.30939e-54 1.25747e-54 6.73861e-55 3.55443e-55 1.84567e-55 9.43576e-56 4.75006e-56 2.35493e-56 1.14993e-56 5.53149e-57 2.62147e-57 1.22417e-57 5.63364e-58 2.55534e-58 1.14256e-58 5.03661e-59 2.1892e-59 9.3838e-60 3.96708e-60 1.65425e-60 6.8028e-61 2.75347e-61 1.08171e-61 3.71759e-62 0 
0 6.84432e-85 2.97338e-84 1.21424e-83 4.89985e-83 1.95917e-82 7.7627e-82 3.04773e-81 1.18558e-80 4.56929e-80 1.74459e-79 6.59835e-79 2.47195e-78 9.17222e-78 3.37058e-77 1.22658e-76 4.41991e-76 1.57696e-75 5.57037e-75 1.94789e-74 6.74258e-74 2.3101e-73 7.83324e-73 2.62856e-72 8.72812e-72 2.86755e-71 9.32067e-71 2.99701e-70 9.5322e-70 2.9986e-69 9.32871e-69 2.86984e-68 8.72941e-68 2.62516e-67 7.80416e-67 2.29323e-66 6.66003e-66 1.91144e-65 5.42071e-65 1.51883e-64 4.20412e-64 1.14947e-63 3.10407e-63 8.2779e-63 2.17978e-62 5.66704e-62 1.45444e-61 3.68448e-61 9.21179e-61 2.2727e-60 5.5324e-60 1.32862e-59 3.14737e-59 7.3535e-59 1.69427e-58 3.84903e-58 8.62071e-58 1.90325e-57 4.14143e-57 8.88066e-57 1.87637e-56 3.90582e-56 8.00869e-56 1.61736e-55 3.21653e-55 6.2986e-55 1.21427e-54 2.30432e-54 4.30394e-54 7.911e-54 1.4308e-53 2.54601e-53 4.45672e-53 7.67359e-53 1.29945e-52 2.164e-52 3.5436e-52 5.70542e-52 9.03132e-52 1.40542e-51 2.14996e-51 3.233e-51 4.77883e-51 6.94347e-51 9.9169e-51 1.39231e-50 1.92168e-50 2.60765e-50 3.47929e-50 4.56532e-50 5.89208e-50 7.48134e-50 9.34793e-50 1.14976e-49 1.39255e-49 1.66146e-49 1.95361e-49 2.26501e-49 2.59067e-49 2.92495e-49 3.26178e-49 3.59503e-49 3.91882e-49 4.22778e-49 4.51733e-49 4.78372e-49 5.02419e-49 5.23691e-49 5.42094e-49 5.57613e-49 5.70299e-49 5.80261e-49 5.8765e-49 5.92651e-49 5.95471e-49 5.96333e-49 5.95468e-49 5.93105e-49 5.89471e-49 5.84782e-49 5.79245e-49 5.7305e-49 5.66378e-49 5.59398e-49 5.52269e-49 5.45144e-49 5.38168e-49 5.31486e-49 5.25233e-49 5.19543e-49 5.14539e-49 5.10334e-49 5.07027e-49 5.04697e-49 5.034e-49 5.03157e-49 5.03954e-49 5.05728e-49 5.08369e-49 5.11713e-49 5.15542e-49 5.19598e-49 5.23589e-49 5.27213e-49 5.30176e-49 5.32221e-49 5.33151e-49 5.32846e-49 5.31282e-49 5.28528e-49 5.24745e-49 5.20168e-49 5.15083e-49 5.09797e-49 5.04608e-49 4.99778e-49 4.95509e-49 4.91929e-49 4.89088e-49 4.86959e-49 4.85451e-49 4.8443e-49 4.83732e-49 4.8319e-49 4.82654e-49 4.82003e-49 4.81158e-49 4.80092e-49 4.78828e-49 4.77438e-49 4.76033e-49 4.74758e-49 4.73774e-49 4.7325e-49 4.73343e-49 4.74196e-49 4.75917e-49 4.78582e-49 4.82226e-49 4.86842e-49 4.92381e-49 4.98756e-49 5.05836e-49 5.13449e-49 5.21374e-49 5.2934e-49 5.37018e-49 5.44018e-49 5.49892e-49 5.5414e-49 5.56226e-49 5.55606e-49 5.51755e-49 5.4421e-49 5.3261e-49 5.16735e-49 4.96537e-49 4.72162e-49 4.43958e-49 4.12463e-49 3.7838e-49 3.42534e-49 3.05825e-49 2.69164e-49 2.33422e-49 1.99378e-49 1.67675e-49 1.38798e-49 1.13059e-49 9.06008e-50 7.14134e-50 5.53574e-50 4.21948e-50 3.16216e-50 2.32975e-50 1.68738e-50 1.20135e-50 8.40766e-51 5.78394e-51 3.91129e-51 2.60001e-51 1.69905e-51 1.09153e-51 6.89424e-52 4.28148e-52 2.61452e-52 1.57006e-52 9.27286e-53 5.38673e-53 3.07821e-53 1.73055e-53 9.5726e-54 5.21065e-54 2.79141e-54 1.47191e-54 7.64044e-55 3.90477e-55 1.96503e-55 9.73867e-56 4.75384e-56 2.28593e-56 1.08297e-56 5.05547e-57 2.32573e-57 1.05456e-57 4.71358e-58 2.07713e-58 9.02534e-59 3.86733e-59 1.63441e-59 6.81314e-60 2.80088e-60 1.13331e-60 4.45096e-61 1.52934e-61 0 
0 2.75747e-84 1.19803e-83 4.89285e-83 1.97463e-82 7.89627e-82 3.12903e-81 1.22864e-80 4.78004e-80 1.84248e-79 7.03567e-79 2.66137e-78 9.97176e-78 3.70058e-77 1.36008e-76 4.95023e-76 1.78408e-75 6.36642e-75 2.24923e-74 7.8667e-74 2.72355e-73 9.33306e-73 3.16534e-72 1.06239e-71 3.52842e-71 1.15948e-70 3.76961e-70 1.21238e-69 3.85696e-69 1.2136e-68 3.77648e-68 1.16208e-67 3.5357e-67 1.06356e-66 3.16266e-66 9.29603e-66 2.70054e-65 7.7529e-65 2.19933e-64 6.16422e-64 1.70679e-63 4.66813e-63 1.26101e-62 3.36397e-62 8.86119e-62 2.30455e-61 5.91668e-61 1.49939e-60 3.75007e-60 9.25545e-60 2.25388e-59 5.41481e-59 1.28321e-58 2.99924e-58 6.91303e-58 1.57112e-57 3.52024e-57 7.77499e-57 1.6925e-56 3.63076e-56 7.67445e-56 1.59814e-55 3.27823e-55 6.62308e-55 1.31769e-54 2.58133e-54 4.97835e-54 9.45107e-54 1.76592e-53 3.24713e-53 5.87501e-53 1.04579e-52 1.83127e-52 3.15414e-52 5.343e-52 8.90054e-52 1.45792e-51 2.34799e-51 3.71769e-51 5.78674e-51 8.85427e-51 1.33172e-50 1.96882e-50 2.86104e-50 4.08673e-50 5.73819e-50 7.9204e-50 1.07481e-49 1.43408e-49 1.88165e-49 2.42833e-49 3.08301e-49 3.85171e-49 4.73669e-49 5.73575e-49 6.84181e-49 8.04283e-49 9.32216e-49 1.06593e-48 1.20307e-48 1.34116e-48 1.47766e-48 1.61017e-48 1.73649e-48 1.85477e-48 1.96348e-48 2.06151e-48 2.14814e-48 2.22301e-48 2.28607e-48 2.33757e-48 2.37794e-48 2.40784e-48 2.42801e-48 2.43931e-48 2.44266e-48 2.43898e-48 2.42923e-48 2.41432e-48 2.39512e-48 2.37248e-48 2.34718e-48 2.31995e-48 2.29146e-48 2.26238e-48 2.23331e-48 2.20487e-48 2.17761e-48 2.15212e-48 2.12891e-48 2.10851e-48 2.09137e-48 2.07789e-48 2.06839e-48 2.06311e-48 2.06214e-48 2.06541e-48 2.07267e-48 2.08347e-48 2.09713e-48 2.11279e-48 2.12937e-48 2.14569e-48 2.16051e-48 2.17264e-48 2.18101e-48 2.18482e-48 2.1836e-48 2.17722e-48 2.16599e-48 2.15055e-48 2.13187e-48 2.11113e-48 2.08956e-48 2.0684e-48 2.04871e-48 2.03132e-48 2.01675e-48 2.00519e-48 1.99655e-48 1.99044e-48 1.98631e-48 1.98349e-48 1.98131e-48 1.97914e-48 1.97648e-48 1.97302e-48 1.96866e-48 1.96347e-48 1.95777e-48 1.952e-48 1.94676e-48 1.94271e-48 1.94053e-48 1.94089e-48 1.94435e-48 1.95136e-48 1.96223e-48 1.97711e-48 1.99596e-48 2.01859e-48 2.04464e-48 2.07358e-48 2.10471e-48 2.13713e-48 2.16975e-48 2.20122e-48 2.22995e-48 2.25412e-48 2.27168e-48 2.28043e-48 2.27815e-48 2.26267e-48 2.23209e-48 2.18491e-48 2.1202e-48 2.03776e-48 1.93815e-48 1.8228e-48 1.69387e-48 1.55426e-48 1.40733e-48 1.25677e-48 1.10634e-48 9.59612e-49 8.19794e-49 6.89545e-49 5.70866e-49 4.65054e-49 3.72708e-49 2.93795e-49 2.27749e-49 1.73599e-49 1.30097e-49 9.58467e-50 6.9415e-50 4.94169e-50 3.45807e-50 2.37863e-50 1.60826e-50 1.0689e-50 6.98371e-51 4.48563e-51 2.83255e-51 1.75865e-51 1.07365e-51 6.44572e-52 3.80578e-52 2.21017e-52 1.2626e-52 7.09598e-53 3.9239e-53 2.13518e-53 1.14345e-53 6.02733e-54 3.12759e-54 1.59784e-54 8.03807e-55 3.98222e-55 1.94318e-55 9.34057e-56 4.42352e-56 2.06422e-56 9.49285e-57 4.30279e-57 1.92254e-57 8.46902e-58 3.67858e-58 1.57571e-58 6.65692e-59 2.77403e-59 1.14002e-59 4.61132e-60 1.81049e-60 6.21928e-61 0 
0 1.10075e-83 4.78281e-83 1.95354e-82 7.88481e-82 3.15338e-81 1.24973e-80 4.90773e-80 1.90961e-79 7.3616e-79 2.81147e-78 1.06364e-77 3.98589e-77 1.47941e-76 5.43819e-76 1.97963e-75 7.13587e-75 2.54686e-74 8.99957e-74 3.1482e-73 1.09016e-72 3.73649e-72 1.2675e-71 4.25507e-71 1.4135e-70 4.64598e-70 1.51081e-69 4.86021e-69 1.54657e-68 4.86753e-68 1.51507e-67 4.66331e-67 1.41923e-66 4.27033e-66 1.27021e-65 3.73462e-65 1.08525e-64 3.11657e-64 8.84377e-64 2.4795e-63 6.86764e-63 1.87895e-62 5.07737e-62 1.35495e-61 3.5704e-61 9.28893e-61 2.3857e-60 6.04803e-60 1.51322e-59 3.73617e-59 9.10182e-59 2.18751e-58 5.18604e-58 1.21262e-57 2.79614e-57 6.35736e-57 1.42501e-56 3.14866e-56 6.85703e-56 1.47159e-55 3.11185e-55 6.48289e-55 1.33038e-54 2.68891e-54 5.35195e-54 1.04886e-53 2.02367e-53 3.84335e-53 7.18413e-53 1.32151e-52 2.39193e-52 4.25937e-52 7.46124e-52 1.28556e-51 2.17843e-51 3.63008e-51 5.94795e-51 9.58203e-51 1.51758e-50 2.36277e-50 3.6161e-50 5.4399e-50 8.0438e-50 1.16909e-49 1.67014e-49 2.34528e-49 3.2374e-49 4.39332e-49 5.86187e-49 7.69109e-49 9.92494e-49 1.25994e-48 1.57387e-48 1.93516e-48 2.34284e-48 2.79396e-48 3.28353e-48 3.8047e-48 4.34902e-48 4.90691e-48 5.46815e-48 6.02248e-48 6.56009e-48 7.07212e-48 7.55103e-48 7.99075e-48 8.38688e-48 8.73655e-48 9.03841e-48 9.29237e-48 9.49948e-48 9.66164e-48 9.78145e-48 9.86204e-48 9.90688e-48 9.91966e-48 9.90419e-48 9.86426e-48 9.80356e-48 9.72566e-48 9.6339e-48 9.53144e-48 9.42121e-48 9.30598e-48 9.18835e-48 9.07082e-48 8.95579e-48 8.84561e-48 8.74253e-48 8.64874e-48 8.56626e-48 8.49697e-48 8.4425e-48 8.40416e-48 8.38286e-48 8.37898e-48 8.39226e-48 8.42171e-48 8.4655e-48 8.5209e-48 8.58436e-48 8.65158e-48 8.71774e-48 8.77784e-48 8.82701e-48 8.86099e-48 8.87652e-48 8.87162e-48 8.84587e-48 8.80043e-48 8.73799e-48 8.66244e-48 8.5785e-48 8.49129e-48 8.40573e-48 8.32617e-48 8.25593e-48 8.19712e-48 8.15055e-48 8.11575e-48 8.09123e-48 8.07469e-48 8.06343e-48 8.0547e-48 8.04596e-48 8.03522e-48 8.02121e-48 8.00347e-48 7.98239e-48 7.95917e-48 7.93568e-48 7.91432e-48 7.89779e-48 7.88886e-48 7.89019e-48 7.9041e-48 7.93242e-48 7.9764e-48 8.0366e-48 8.11292e-48 8.20457e-48 8.31011e-48 8.42741e-48 8.55363e-48 8.68518e-48 8.81761e-48 8.94552e-48 9.06248e-48 9.16111e-48 9.23311e-48 9.26959e-48 9.26143e-48 9.19987e-48 9.07708e-48 8.88692e-48 8.62555e-48 8.292e-48 7.88854e-48 7.42079e-48 6.8976e-48 6.33059e-48 5.73348e-48 5.12127e-48 4.50922e-48 3.91196e-48 3.34258e-48 2.81195e-48 2.32831e-48 1.89696e-48 1.52042e-48 1.19858e-48 9.29174e-49 7.08261e-49 5.30772e-49 3.91023e-49 2.83173e-49 2.01574e-49 1.41041e-49 9.70016e-50 6.55755e-50 4.35757e-50 2.84647e-50 1.82788e-50 1.15398e-50 7.16292e-51 4.37178e-51 2.62387e-51 1.54877e-51 8.99152e-52 5.13492e-52 2.88493e-52 1.59475e-52 8.6748e-53 4.64397e-53 2.44703e-53 1.2693e-53 6.48228e-54 3.25975e-54 1.61434e-54 7.87442e-55 3.78369e-55 1.79121e-55 8.35546e-56 3.84103e-56 1.74036e-56 7.77324e-57 3.42293e-57 1.48623e-57 6.36389e-58 2.6876e-58 1.11956e-58 4.59934e-59 1.85978e-59 7.29949e-60 2.50685e-60 0 
0 4.35416e-83 1.89207e-82 7.72899e-82 3.1199e-81 1.24789e-80 4.94615e-80 1.94262e-79 7.55976e-79 2.91471e-78 1.11332e-77 4.21255e-77 1.57885e-76 5.86103e-76 2.15482e-75 7.84539e-75 2.82848e-74 1.00969e-73 3.56852e-73 1.24857e-72 4.3244e-72 1.48249e-71 5.03001e-71 1.68897e-70 5.61189e-70 1.84498e-69 6.00109e-69 1.931e-68 6.14617e-68 1.93489e-67 6.02416e-67 1.85472e-66 5.64623e-66 1.69939e-65 5.05632e-65 1.48709e-64 4.32269e-64 1.24176e-63 3.52485e-63 9.88578e-63 2.73906e-62 7.49651e-62 2.02644e-61 5.40971e-61 1.42602e-60 3.71139e-60 9.53567e-60 2.41833e-59 6.05304e-59 1.4951e-58 3.64372e-58 8.76081e-58 2.07782e-57 4.86046e-57 1.12123e-56 2.55033e-56 5.71905e-56 1.2642e-55 2.75432e-55 5.91363e-55 1.25105e-54 2.60743e-54 5.35314e-54 1.08243e-53 2.15537e-53 4.22586e-53 8.15678e-53 1.54979e-52 2.89812e-52 5.33324e-52 9.65694e-52 1.72031e-51 3.01465e-51 5.19611e-51 8.8081e-51 1.46825e-50 2.40653e-50 3.87805e-50 6.14372e-50 9.56786e-50 1.46466e-49 2.20385e-49 3.25938e-49 4.73795e-49 6.76947e-49 9.50692e-49 1.31241e-48 1.78108e-48 2.37644e-48 3.11792e-48 4.02322e-48 5.10682e-48 6.37834e-48 7.8411e-48 9.49096e-48 1.13157e-47 1.32947e-47 1.54001e-47 1.75975e-47 1.98478e-47 2.21097e-47 2.43416e-47 2.65042e-47 2.85618e-47 3.04841e-47 3.22473e-47 3.38339e-47 3.52329e-47 3.64391e-47 3.74527e-47 3.82782e-47 3.89234e-47 3.93992e-47 3.97181e-47 3.98941e-47 3.99422e-47 3.98776e-47 3.97154e-47 3.94704e-47 3.91568e-47 3.87881e-47 3.83767e-47 3.79343e-47 3.74721e-47 3.70004e-47 3.65292e-47 3.60681e-47 3.56264e-47 3.52133e-47 3.48373e-47 3.45068e-47 3.42292e-47 3.40109e-47 3.38574e-47 3.37722e-47 3.37569e-47 3.38104e-47 3.39289e-47 3.41049e-47 3.43276e-47 3.45826e-47 3.48528e-47 3.51188e-47 3.53604e-47 3.55582e-47 3.5695e-47 3.57576e-47 3.57383e-47 3.56351e-47 3.5453e-47 3.52025e-47 3.48995e-47 3.45628e-47 3.42131e-47 3.38701e-47 3.35513e-47 3.32701e-47 3.30348e-47 3.28487e-47 3.27099e-47 3.26123e-47 3.25466e-47 3.2502e-47 3.24674e-47 3.24326e-47 3.23896e-47 3.23333e-47 3.22618e-47 3.21768e-47 3.20831e-47 3.19883e-47 3.1902e-47 3.1835e-47 3.17987e-47 3.18036e-47 3.1859e-47 3.19724e-47 3.21488e-47 3.23904e-47 3.26968e-47 3.30649e-47 3.34888e-47 3.39602e-47 3.44677e-47 3.4997e-47 3.55302e-47 3.60458e-47 3.65181e-47 3.69173e-47 3.72103e-47 3.73612e-47 3.73333e-47 3.70909e-47 3.66026e-47 3.58431e-47 3.47967e-47 3.3459e-47 3.18389e-47 2.99586e-47 2.78535e-47 2.55703e-47 2.31642e-47 2.06956e-47 1.82263e-47 1.58155e-47 1.35161e-47 1.13724e-47 9.4177e-48 7.6739e-48 6.15123e-48 4.84948e-48 3.75961e-48 2.8658e-48 2.1476e-48 1.58209e-48 1.14565e-48 8.15447e-49 5.70499e-49 3.92308e-49 2.65166e-49 1.76173e-49 1.15056e-49 7.38674e-50 4.66225e-50 2.89316e-50 1.7653e-50 1.05919e-50 6.25002e-51 3.62734e-51 2.07082e-51 1.16304e-51 6.42688e-52 3.49469e-52 1.87016e-52 9.85064e-53 5.10771e-53 2.60748e-53 1.31072e-53 6.4886e-54 3.16377e-54 1.51961e-54 7.19104e-55 3.35309e-55 1.54082e-55 6.9787e-56 3.11581e-56 1.37151e-56 5.9528e-57 2.54797e-57 1.07566e-57 4.47917e-58 1.83945e-58 7.4353e-59 2.91734e-59 1.00163e-59 0 
0 1.7066e-82 7.41663e-82 3.02997e-81 1.22323e-80 4.89322e-80 1.93973e-79 7.61937e-79 2.9655e-78 1.14353e-77 4.36852e-77 1.65321e-76 6.19715e-76 2.30089e-75 8.46071e-75 3.08097e-74 1.11098e-73 3.96665e-73 1.40219e-72 4.90703e-72 1.6999e-71 5.82882e-71 1.97813e-70 6.64363e-70 2.20798e-69 7.26076e-69 2.36226e-68 7.60308e-68 2.42062e-67 7.62248e-67 2.37386e-66 7.31072e-66 2.22622e-65 6.7024e-65 1.99483e-64 5.86872e-64 1.70648e-63 4.90373e-63 1.39243e-62 3.90655e-62 1.08277e-61 2.96447e-61 8.01641e-61 2.14082e-60 5.64543e-60 1.46985e-59 3.77798e-59 9.58509e-59 2.4001e-58 5.93066e-58 1.44597e-57 3.4781e-57 8.25259e-57 1.93129e-56 4.45709e-56 1.01425e-55 2.27544e-55 5.03213e-55 1.09684e-54 2.35602e-54 4.98649e-54 1.03975e-53 2.13561e-53 4.32022e-53 8.60644e-53 1.68815e-52 3.25991e-52 6.19654e-52 1.15926e-51 2.13422e-51 3.86605e-51 6.88984e-51 1.20784e-50 2.08266e-50 3.53168e-50 5.88916e-50 9.65582e-50 1.5565e-49 2.46658e-49 3.84236e-49 5.88342e-49 8.85464e-49 1.30981e-48 1.90432e-48 2.72122e-48 3.82204e-48 5.27664e-48 7.16123e-48 9.55503e-48 1.25359e-47 1.61746e-47 2.05287e-47 2.56362e-47 3.15095e-47 3.8131e-47 4.54501e-47 5.33837e-47 6.18178e-47 7.06134e-47 7.96136e-47 8.86519e-47 9.7562e-47 1.06186e-46 1.14383e-46 1.22032e-46 1.2904e-46 1.35339e-46 1.40886e-46 1.45663e-46 1.49671e-46 1.52931e-46 1.55475e-46 1.57347e-46 1.58596e-46 1.5928e-46 1.59458e-46 1.5919e-46 1.58537e-46 1.57556e-46 1.56304e-46 1.54835e-46 1.53197e-46 1.51437e-46 1.49599e-46 1.47724e-46 1.45851e-46 1.44018e-46 1.42263e-46 1.40621e-46 1.39128e-46 1.37814e-46 1.36711e-46 1.35844e-46 1.35235e-46 1.34897e-46 1.34837e-46 1.35051e-46 1.35524e-46 1.36225e-46 1.37113e-46 1.38129e-46 1.39206e-46 1.40266e-46 1.41229e-46 1.42018e-46 1.42564e-46 1.42815e-46 1.42739e-46 1.42329e-46 1.41605e-46 1.40609e-46 1.39404e-46 1.38066e-46 1.36675e-46 1.35312e-46 1.34046e-46 1.32929e-46 1.31996e-46 1.31259e-46 1.3071e-46 1.30325e-46 1.30067e-46 1.29892e-46 1.29756e-46 1.29618e-46 1.29447e-46 1.29223e-46 1.28937e-46 1.28597e-46 1.28223e-46 1.27843e-46 1.27497e-46 1.27229e-46 1.27082e-46 1.27099e-46 1.27319e-46 1.27769e-46 1.2847e-46 1.29431e-46 1.30651e-46 1.32117e-46 1.33806e-46 1.35684e-46 1.37707e-46 1.39819e-46 1.41948e-46 1.44009e-46 1.459e-46 1.47504e-46 1.48687e-46 1.49307e-46 1.49216e-46 1.48272e-46 1.46348e-46 1.43343e-46 1.39191e-46 1.33874e-46 1.27424e-46 1.19931e-46 1.11534e-46 1.02419e-46 9.28053e-47 8.29358e-47 7.30575e-47 6.34077e-47 5.41996e-47 4.56113e-47 3.77774e-47 3.07863e-47 2.46801e-47 1.94586e-47 1.50861e-47 1.14997e-47 8.61765e-48 6.34817e-48 4.59662e-48 3.27145e-48 2.28847e-48 1.57345e-48 1.06333e-48 7.06327e-49 4.61192e-49 2.9602e-49 1.86789e-49 1.1588e-49 7.06847e-50 4.23981e-50 2.501e-50 1.45102e-50 8.28091e-51 4.64916e-51 2.56814e-51 1.39593e-51 7.46733e-52 3.93172e-52 2.03785e-52 1.03991e-52 5.22526e-53 2.58567e-53 1.26023e-53 6.05063e-54 2.86209e-54 1.33401e-54 6.12762e-55 2.7742e-55 1.23811e-55 5.44773e-56 2.36356e-56 1.01127e-56 4.26756e-57 1.77639e-57 7.29228e-58 2.94656e-58 1.15572e-58 3.96697e-59 0 
0 6.62731e-82 2.88042e-81 1.1769e-80 4.75181e-80 1.90108e-79 7.5371e-79 2.96102e-78 1.15261e-77 4.44525e-77 1.69844e-76 6.42853e-76 2.41017e-75 8.95008e-75 3.29165e-74 1.19887e-73 4.32388e-73 1.5441e-72 5.45943e-72 1.91095e-71 6.62136e-71 2.27092e-70 7.70858e-70 2.58957e-69 8.60839e-69 2.83151e-68 9.21456e-68 2.96655e-67 9.44726e-67 2.97575e-66 9.27e-66 2.8557e-65 8.6986e-65 2.61967e-64 7.79935e-64 2.29529e-63 6.67633e-63 1.91916e-62 5.45141e-62 1.52997e-61 4.24209e-61 1.16186e-60 3.14304e-60 8.39686e-60 2.21515e-59 5.7697e-59 1.48359e-58 3.76555e-58 9.43287e-58 2.33186e-57 5.68781e-57 1.36872e-56 3.24905e-56 7.60689e-56 1.75634e-55 3.99851e-55 8.97466e-55 1.98566e-54 4.33011e-54 9.30544e-54 1.97041e-53 4.11049e-53 8.44673e-53 1.70953e-52 3.40719e-52 6.68627e-52 1.29175e-51 2.45651e-51 4.59772e-51 8.46823e-51 1.53465e-50 2.73611e-50 4.79858e-50 8.27738e-50 1.40418e-49 2.34236e-49 3.84185e-49 6.19503e-49 9.82029e-49 1.53021e-48 2.34367e-48 3.52809e-48 5.21997e-48 7.59057e-48 1.08483e-47 1.52385e-47 2.10397e-47 2.85552e-47 3.81006e-47 4.99849e-47 6.44888e-47 8.18396e-47 1.02185e-46 1.25572e-46 1.51925e-46 1.81037e-46 2.12573e-46 2.46075e-46 2.80985e-46 3.16675e-46 3.52482e-46 3.87746e-46 4.2184e-46 4.54208e-46 4.84379e-46 5.11987e-46 5.36769e-46 5.58565e-46 5.77311e-46 5.93021e-46 6.05776e-46 6.15712e-46 6.23002e-46 6.27851e-46 6.30481e-46 6.31125e-46 6.30023e-46 6.2741e-46 6.23518e-46 6.18564e-46 6.12759e-46 6.06294e-46 5.99354e-46 5.92107e-46 5.84715e-46 5.77335e-46 5.70114e-46 5.63199e-46 5.56732e-46 5.50848e-46 5.45675e-46 5.41331e-46 5.37918e-46 5.35519e-46 5.34191e-46 5.33959e-46 5.34808e-46 5.36676e-46 5.39448e-46 5.42954e-46 5.46969e-46 5.51224e-46 5.55413e-46 5.59221e-46 5.6234e-46 5.64501e-46 5.65496e-46 5.65201e-46 5.6359e-46 5.60737e-46 5.5681e-46 5.52059e-46 5.46782e-46 5.41302e-46 5.35932e-46 5.30945e-46 5.26551e-46 5.22883e-46 5.19988e-46 5.17836e-46 5.1633e-46 5.15323e-46 5.14643e-46 5.14114e-46 5.13576e-46 5.12904e-46 5.12016e-46 5.10885e-46 5.09538e-46 5.08051e-46 5.06544e-46 5.05171e-46 5.04101e-46 5.03514e-46 5.03576e-46 5.04435e-46 5.06208e-46 5.08972e-46 5.12763e-46 5.17577e-46 5.23363e-46 5.30033e-46 5.37454e-46 5.45452e-46 5.53804e-46 5.62234e-46 5.70406e-46 5.77918e-46 5.84307e-46 5.89047e-46 5.91574e-46 5.91304e-46 5.87671e-46 5.80165e-46 5.68381e-46 5.52055e-46 5.31107e-46 5.05661e-46 4.7606e-46 4.42854e-46 4.06774e-46 3.68694e-46 3.29571e-46 2.90388e-46 2.52089e-46 2.15525e-46 1.81407e-46 1.50274e-46 1.2248e-46 9.81973e-47 7.74276e-47 6.00319e-47 4.57612e-47 3.4292e-47 2.526e-47 1.82891e-47 1.30152e-47 9.1033e-48 6.25805e-48 4.2284e-48 2.80817e-48 1.83316e-48 1.17633e-48 7.42069e-49 4.6023e-49 2.80647e-49 1.68283e-49 9.92342e-50 5.75533e-50 3.28334e-50 1.84268e-50 1.01748e-50 5.52842e-51 2.95617e-51 1.55586e-51 8.06087e-52 4.11172e-52 2.06517e-52 1.0215e-52 4.97658e-53 2.38835e-53 1.12927e-53 5.26126e-54 2.41567e-54 1.09321e-54 4.87689e-55 2.14496e-55 9.30234e-56 3.97849e-56 1.67825e-56 6.98297e-57 2.86547e-57 1.1574e-57 4.53804e-58 1.55723e-58 0 
0 2.54972e-81 1.1083e-80 4.52887e-80 1.8288e-79 7.31753e-79 2.90153e-78 1.14006e-77 4.43845e-77 1.71203e-76 6.54235e-76 2.47666e-75 9.28705e-75 3.44932e-74 1.26882e-73 4.62213e-73 1.66735e-72 5.95549e-72 2.1061e-71 7.37353e-71 2.55546e-70 8.76643e-70 2.97645e-69 1.00013e-68 3.32553e-68 1.09413e-67 3.56156e-67 1.14693e-66 3.65352e-66 1.15114e-65 3.58706e-65 1.10536e-64 3.36803e-64 1.01464e-63 3.02179e-63 8.89589e-63 2.58844e-62 7.44327e-62 2.11503e-61 5.93812e-61 1.64706e-60 4.51282e-60 1.22128e-59 3.26402e-59 8.61419e-59 2.24462e-58 5.77412e-58 1.46618e-57 3.67442e-57 9.08736e-57 2.21756e-56 5.33877e-56 1.26789e-55 2.96983e-55 6.86017e-55 1.56254e-54 3.50878e-54 7.76698e-54 1.69455e-53 3.64336e-53 7.71849e-53 1.61095e-52 3.31198e-52 6.70635e-52 1.33726e-51 2.62549e-51 5.07473e-51 9.65511e-51 1.80794e-50 3.33144e-50 6.04008e-50 1.07735e-49 1.89026e-49 3.26198e-49 5.53585e-49 9.23807e-49 1.51575e-48 2.445e-48 3.87703e-48 6.04304e-48 9.25805e-48 1.39402e-47 2.06296e-47 3.0004e-47 4.28876e-47 6.02509e-47 8.31946e-47 1.12918e-46 1.50664e-46 1.97652e-46 2.54984e-46 3.23549e-46 4.0392e-46 4.96263e-46 6.00263e-46 7.15088e-46 8.39386e-46 9.71332e-46 1.10871e-45 1.24903e-45 1.38966e-45 1.52801e-45 1.66163e-45 1.78832e-45 1.90627e-45 2.01406e-45 2.11068e-45 2.19555e-45 2.26844e-45 2.32944e-45 2.37888e-45 2.41731e-45 2.44544e-45 2.46407e-45 2.47406e-45 2.47635e-45 2.47185e-45 2.46149e-45 2.44617e-45 2.42673e-45 2.40399e-45 2.3787e-45 2.35156e-45 2.32323e-45 2.29436e-45 2.26552e-45 2.23732e-45 2.21032e-45 2.18507e-45 2.16209e-45 2.14189e-45 2.12493e-45 2.11161e-45 2.10225e-45 2.09708e-45 2.09619e-45 2.09952e-45 2.10685e-45 2.11771e-45 2.13144e-45 2.14717e-45 2.16383e-45 2.18024e-45 2.19516e-45 2.20739e-45 2.21587e-45 2.21979e-45 2.21866e-45 2.21237e-45 2.20122e-45 2.18588e-45 2.16731e-45 2.14669e-45 2.12528e-45 2.1043e-45 2.08484e-45 2.0677e-45 2.0534e-45 2.04213e-45 2.03378e-45 2.02794e-45 2.02405e-45 2.02143e-45 2.01939e-45 2.0173e-45 2.01468e-45 2.0112e-45 2.00676e-45 2.00147e-45 1.99562e-45 1.98969e-45 1.98428e-45 1.98006e-45 1.97773e-45 1.97795e-45 1.98128e-45 1.9882e-45 1.999e-45 2.01383e-45 2.03266e-45 2.05531e-45 2.08142e-45 2.11049e-45 2.14183e-45 2.17459e-45 2.20769e-45 2.23982e-45 2.26941e-45 2.29466e-45 2.3135e-45 2.32373e-45 2.32305e-45 2.30922e-45 2.28023e-45 2.23446e-45 2.17085e-45 2.08906e-45 1.98956e-45 1.87365e-45 1.74347e-45 1.6019e-45 1.45236e-45 1.2986e-45 1.14451e-45 9.93798e-46 8.4984e-46 7.15445e-46 5.92758e-46 4.83192e-46 3.87436e-46 3.05514e-46 2.36885e-46 1.80575e-46 1.35316e-46 9.96708e-47 7.21593e-47 5.13457e-47 3.59083e-47 2.46811e-47 1.66732e-47 1.10707e-47 7.22514e-48 4.63515e-48 2.92317e-48 1.8124e-48 1.10484e-48 6.62269e-49 3.90394e-49 2.26335e-49 1.29072e-49 7.241e-50 3.9967e-50 2.17069e-50 1.16024e-50 6.10385e-51 3.16104e-51 1.6117e-51 8.09146e-52 4.00054e-52 1.94815e-52 9.34539e-53 4.41678e-53 2.05688e-53 9.43991e-54 4.27015e-54 1.90413e-54 8.37117e-55 3.62889e-55 1.55138e-55 6.54144e-56 2.72069e-56 1.11599e-56 4.50583e-57 1.76604e-57 6.05841e-58 0 