# vtk DataFile Version 3.0
Gray-Scott Simulation Output
ASCII
DATASET STRUCTURED_POINTS
DIMENSIONS 256 256 1
SPACING 1.0 1.0 1.0
ORIGIN 0 0 0
POINT_DATA 65536
SCALARS u double
LOOKUP_TABLE default
0 0 0 0 0 0 0 0 0 0 0 0 0 0 0 0 0 0 0 0 0 0 0 0 0 0 0 0 0 0 0 0 0 0 0 0 0 0 0 0 0 0 0 0 0 0 0 0 0 0 0 0 0 0 0 0 0 0 0 0 0 0 0 0 0 0 0 0 0 0 0 0 0 0 0 0 0 0 0 0 0 0 0 0 0 0 0 0 0 0 0 0 0 0 0 0 0 0 0 0 0 0 0 0 0 0 0 0 0 0 0 0 0 0 0 0 0 0 0 0 0 0 0 0 0 0 0 0 0 0 0 0 0 0 0 0 0 0 0 0 0 0 0 0 0 0 0 0 0 0 0 0 0 0 0 0 0 0 0 0 0 0 0 0 0 0 0 0 0 0 0 0 0 0 0 0 0 0 0 0 0 0 0 0 0 0 0 0 0 0 0 0 0 0 0 0 0 0 0 0 0 0 0 0 0 0 0 0 0 0 0 0 0 0 0 0 0 0 0 0 0 0 0 0 0 0 0 0 0 0 0 0 0 0 0 0 0 0 0 0 0 0 0 0 0 0 0 0 0 0 0 0 0 0 0 0 
0 2.34639e-103 1.41348e-102 8.20728e-102 4.71576e-101 2.68306e-100 1.51149e-99 8.43026e-99 4.65475e-98 2.54409e-97 1.37629e-96 7.36861e-96 3.90409e-95 2.04677e-94 1.06167e-93 5.44803e-93 2.76549e-92 1.38849e-91 6.89452e-91 3.38539e-90 1.64365e-89 7.88963e-89 3.74369e-88 1.75586e-87 8.139e-87 3.72815e-86 1.68734e-85 7.54471e-85 3.33241e-84 1.45375e-83 6.26302e-83 2.66426e-82 1.11894e-81 4.63893e-81 1.8982e-80 7.66504e-80 3.05402e-79 1.20045e-78 4.65444e-78 1.77979e-77 6.71081e-77 2.49469e-76 9.14152e-76 3.30145e-75 1.17489e-74 4.11925e-74 1.42261e-73 4.83859e-73 1.62044e-72 5.34249e-72 1.73365e-71 5.53604e-71 1.73926e-70 5.37486e-70 1.63347e-69 4.88089e-69 1.43363e-68 4.13828e-68 1.17368e-67 3.26982e-67 8.94612e-67 2.40313e-66 6.33642e-66 1.63955e-65 4.16204e-65 1.03628e-64 2.53004e-64 6.05533e-64 1.42035e-63 3.26423e-63 7.34818e-63 1.61986e-62 3.49585e-62 7.38404e-62 1.52611e-61 3.08542e-61 6.10055e-61 1.17935e-60 2.2286e-60 4.11565e-60 7.42621e-60 1.30898e-59 2.25349e-59 3.78851e-59 6.2189e-59 9.96663e-59 1.55935e-58 2.38173e-58 3.55142e-58 5.17021e-58 7.34975e-58 1.02044e-57 1.38412e-57 1.83483e-57 2.37823e-57 3.01576e-57 3.74378e-57 4.55335e-57 5.43049e-57 6.35709e-57 7.31222e-57 8.27372e-57 9.21986e-57 1.01307e-56 1.0989e-56 1.17809e-56 1.24961e-56 1.31273e-56 1.36704e-56 1.41235e-56 1.44871e-56 1.47634e-56 1.49565e-56 1.5072e-56 1.51169e-56 1.50994e-56 1.50284e-56 1.49129e-56 1.47617e-56 1.45826e-56 1.43824e-56 1.41666e-56 1.39394e-56 1.37046e-56 1.34656e-56 1.32261e-56 1.29899e-56 1.27618e-56 1.25464e-56 1.23486e-56 1.21727e-56 1.20227e-56 1.19019e-56 1.18134e-56 1.17599e-56 1.1744e-56 1.1768e-56 1.18334e-56 1.19399e-56 1.20846e-56 1.22613e-56 1.24599e-56 1.26669e-56 1.28657e-56 1.30386e-56 1.31686e-56 1.3241e-56 1.32464e-56 1.3181e-56 1.30482e-56 1.2858e-56 1.2626e-56 1.23715e-56 1.21147e-56 1.1875e-56 1.16679e-56 1.1504e-56 1.13879e-56 1.13185e-56 1.12899e-56 1.12927e-56 1.13159e-56 1.13481e-56 1.13789e-56 1.14001e-56 1.14057e-56 1.13924e-56 1.13592e-56 1.13076e-56 1.12415e-56 1.11664e-56 1.10896e-56 1.10193e-56 1.09642e-56 1.09326e-56 1.09312e-56 1.09651e-56 1.10368e-56 1.11466e-56 1.12927e-56 1.14717e-56 1.16797e-56 1.19128e-56 1.21673e-56 1.24395e-56 1.27252e-56 1.30183e-56 1.33101e-56 1.35881e-56 1.38355e-56 1.40312e-56 1.41515e-56 1.4171e-56 1.40657e-56 1.38155e-56 1.34066e-56 1.28343e-56 1.21037e-56 1.12308e-56 1.02412e-56 9.16854e-57 8.05111e-57 6.92894e-57 5.84015e-57 4.81789e-57 3.88803e-57 3.06791e-57 2.36605e-57 1.78293e-57 1.31237e-57 9.43424e-58 6.62241e-58 4.53879e-58 3.03707e-58 1.98404e-58 1.26543e-58 7.88032e-59 4.79182e-59 2.84551e-59 1.65036e-59 9.35037e-60 5.17589e-60 2.79984e-60 1.48034e-60 7.65182e-61 3.86763e-61 1.91207e-61 9.24804e-62 4.37713e-62 2.02784e-62 9.19804e-63 4.08588e-63 1.77795e-63 7.58069e-64 3.16787e-64 1.2978e-64 5.21368e-65 2.05441e-65 7.94226e-66 3.0132e-66 1.12213e-66 4.103e-67 1.47334e-67 5.19704e-68 1.80119e-68 6.13498e-69 2.05408e-69 6.76193e-70 2.1891e-70 6.97103e-71 2.18402e-71 6.73313e-72 2.04211e-72 6.06215e-73 1.64701e-73 0 
0 1.41199e-102 8.50508e-102 4.93792e-101 2.83696e-100 1.61395e-99 9.09126e-99 5.07013e-98 2.79921e-97 1.5298e-96 8.27511e-96 4.43011e-95 2.34701e-94 1.23035e-93 6.38146e-93 3.27445e-92 1.66204e-91 8.34419e-91 4.14304e-90 2.03422e-89 9.87587e-89 4.74024e-88 2.24917e-87 1.05485e-86 4.88941e-86 2.23956e-85 1.01358e-84 4.53194e-84 2.00165e-83 8.73195e-83 3.7618e-82 1.60023e-81 6.72063e-81 2.78623e-80 1.14009e-79 4.60377e-79 1.83431e-78 7.21028e-78 2.79564e-77 1.06903e-76 4.03096e-76 1.49852e-75 5.49136e-75 1.98327e-74 7.05821e-74 2.47478e-73 8.54727e-73 2.90728e-72 9.73707e-72 3.21046e-71 1.04188e-70 3.32728e-70 1.04542e-69 3.23096e-69 9.8201e-69 2.93459e-68 8.62041e-68 2.48862e-67 7.05891e-67 1.96681e-66 5.38177e-66 1.44585e-65 3.8128e-65 9.86693e-65 2.50509e-64 6.23816e-64 1.52324e-63 3.6462e-63 8.55383e-63 1.96613e-62 4.42667e-62 9.75975e-62 2.1066e-61 4.45029e-61 9.19911e-61 1.86012e-60 3.67841e-60 7.1121e-60 1.34416e-59 2.48265e-59 4.48026e-59 7.89813e-59 1.35988e-58 2.28646e-58 3.75367e-58 6.01636e-58 9.41388e-58 1.43797e-57 2.14431e-57 3.12189e-57 4.43812e-57 6.16202e-57 8.35823e-57 1.10799e-56 1.4361e-56 1.821e-56 2.26048e-56 2.7491e-56 3.2784e-56 3.83742e-56 4.41348e-56 4.99322e-56 5.56351e-56 6.1123e-56 6.62927e-56 7.10608e-56 7.5365e-56 7.91628e-56 8.24288e-56 8.5153e-56 8.73381e-56 8.89982e-56 9.01577e-56 9.08508e-56 9.11197e-56 9.10136e-56 9.05859e-56 8.98912e-56 8.89819e-56 8.79054e-56 8.67022e-56 8.54049e-56 8.40398e-56 8.26288e-56 8.11926e-56 7.97528e-56 7.83337e-56 7.69627e-56 7.56685e-56 7.44798e-56 7.34233e-56 7.25222e-56 7.17968e-56 7.12651e-56 7.09438e-56 7.08489e-56 7.0994e-56 7.13876e-56 7.20281e-56 7.28984e-56 7.39608e-56 7.51552e-56 7.63996e-56 7.7595e-56 7.86347e-56 7.94156e-56 7.9851e-56 7.98825e-56 7.94887e-56 7.86898e-56 7.75459e-56 7.61508e-56 7.462e-56 7.30765e-56 7.16356e-56 7.03912e-56 6.94068e-56 6.87101e-56 6.82945e-56 6.81242e-56 6.81428e-56 6.82834e-56 6.84778e-56 6.86641e-56 6.87921e-56 6.88261e-56 6.87455e-56 6.85452e-56 6.82344e-56 6.78356e-56 6.73828e-56 6.69194e-56 6.64955e-56 6.61628e-56 6.59708e-56 6.59611e-56 6.61636e-56 6.6594e-56 6.72535e-56 6.8131e-56 6.92068e-56 7.04573e-56 7.18587e-56 7.33886e-56 7.50249e-56 7.67421e-56 7.85042e-56 8.02586e-56 8.19299e-56 8.34167e-56 8.45935e-56 8.53159e-56 8.54321e-56 8.47973e-56 8.32897e-56 8.08266e-56 7.73785e-56 7.29769e-56 6.77174e-56 6.17543e-56 5.52892e-56 4.85536e-56 4.17886e-56 3.5224e-56 2.90598e-56 2.34522e-56 1.85059e-56 1.42726e-56 1.07552e-56 7.91674e-57 5.69106e-57 3.99481e-57 2.73784e-57 1.83192e-57 1.19669e-57 7.63215e-58 4.75251e-58 2.88967e-58 1.71582e-58 9.95068e-59 5.63717e-59 3.12014e-59 1.68762e-59 8.92188e-60 4.61117e-60 2.33046e-60 1.15199e-60 5.57112e-61 2.63651e-61 1.2213e-61 5.53898e-62 2.46019e-62 1.07041e-62 4.56338e-63 1.90675e-63 7.81062e-64 3.13742e-64 1.23613e-64 4.77834e-65 1.81265e-65 6.74976e-66 2.46776e-66 8.86063e-67 3.1252e-67 1.08304e-67 3.6886e-68 1.2349e-68 4.06493e-69 1.31589e-69 4.19007e-70 1.31267e-70 4.0466e-71 1.22724e-71 3.64299e-72 9.89719e-73 0 
0 8.18935e-102 4.93233e-101 2.86333e-100 1.64489e-99 9.35685e-99 5.27014e-98 2.93884e-97 1.62238e-96 8.86567e-96 4.79528e-95 2.56696e-94 1.35982e-93 7.12796e-93 3.69677e-92 1.89675e-91 9.62684e-91 4.83279e-90 2.39942e-89 1.17804e-88 5.71892e-88 2.74484e-87 1.30232e-86 6.10758e-86 2.83084e-85 1.2966e-84 5.86796e-84 2.62363e-83 1.15877e-82 5.05488e-82 2.17765e-81 9.2634e-81 3.89041e-80 1.61288e-79 6.59971e-79 2.66503e-78 1.06186e-77 4.17401e-77 1.61842e-76 6.18889e-76 2.3337e-75 8.67591e-75 3.17944e-74 1.14835e-73 4.08703e-73 1.4331e-72 4.94987e-72 1.68377e-71 5.6397e-71 1.85964e-70 6.03555e-70 1.92765e-69 6.05719e-69 1.87221e-68 5.69095e-68 1.70084e-67 4.99684e-67 1.44271e-66 4.09272e-66 1.14049e-65 3.12116e-65 8.38637e-65 2.21187e-64 5.72481e-64 1.45368e-63 3.6205e-63 8.84196e-63 2.11686e-62 4.96688e-62 1.14185e-61 2.57126e-61 5.66997e-61 1.22404e-60 2.5863e-60 5.34699e-60 1.08137e-59 2.13879e-59 4.13596e-59 7.81804e-59 1.44421e-58 2.60666e-58 4.59587e-58 7.91413e-58 1.33083e-57 2.18507e-57 3.50261e-57 5.48111e-57 8.37312e-57 1.2487e-56 1.81808e-56 2.58472e-56 3.5888e-56 4.86795e-56 6.45303e-56 8.3638e-56 1.0605e-55 1.31636e-55 1.60079e-55 1.90882e-55 2.23406e-55 2.56912e-55 2.90621e-55 3.23768e-55 3.55654e-55 3.85679e-55 4.13359e-55 4.38337e-55 4.60366e-55 4.79304e-55 4.95093e-55 5.07754e-55 5.17368e-55 5.24081e-55 5.2809e-55 5.29641e-55 5.2902e-55 5.26536e-55 5.22507e-55 5.17235e-55 5.10996e-55 5.04023e-55 4.96506e-55 4.88597e-55 4.80422e-55 4.72101e-55 4.63759e-55 4.55537e-55 4.47594e-55 4.40096e-55 4.3321e-55 4.2709e-55 4.21871e-55 4.17671e-55 4.14593e-55 4.12735e-55 4.12188e-55 4.13032e-55 4.15316e-55 4.19031e-55 4.24077e-55 4.30237e-55 4.37162e-55 4.44375e-55 4.51305e-55 4.57331e-55 4.61857e-55 4.64379e-55 4.64559e-55 4.62273e-55 4.57638e-55 4.51004e-55 4.42914e-55 4.3404e-55 4.25093e-55 4.16743e-55 4.09534e-55 4.03834e-55 3.99804e-55 3.97405e-55 3.96428e-55 3.96545e-55 3.97369e-55 3.98503e-55 3.99588e-55 4.00333e-55 4.0053e-55 4.00062e-55 3.98897e-55 3.9709e-55 3.94771e-55 3.92138e-55 3.89443e-55 3.86975e-55 3.85037e-55 3.83914e-55 3.83849e-55 3.85016e-55 3.87505e-55 3.91324e-55 3.96407e-55 4.02641e-55 4.09889e-55 4.18011e-55 4.26878e-55 4.36362e-55 4.46314e-55 4.56527e-55 4.66696e-55 4.76383e-55 4.85001e-55 4.91821e-55 4.96005e-55 4.96673e-55 4.92982e-55 4.84224e-55 4.69917e-55 4.49887e-55 4.24317e-55 3.93758e-55 3.59107e-55 3.21533e-55 2.82381e-55 2.43052e-55 2.04883e-55 1.69037e-55 1.36425e-55 1.07655e-55 8.30308e-56 6.25695e-56 4.60565e-56 3.31081e-56 2.32396e-56 1.59268e-56 1.06563e-56 6.96083e-57 4.43912e-57 2.76402e-57 1.68047e-57 9.97732e-58 5.78565e-58 3.27729e-58 1.81375e-58 9.80909e-59 5.18508e-59 2.67951e-59 1.35403e-59 6.69236e-60 3.23604e-60 1.53124e-60 7.09209e-61 3.21605e-61 1.42824e-61 6.21333e-62 2.64853e-62 1.10651e-62 4.53199e-63 1.82021e-63 7.17067e-64 2.77152e-64 1.05125e-64 3.91407e-65 1.43085e-65 5.13701e-66 1.81167e-66 6.27771e-67 2.13786e-67 7.15668e-68 2.35557e-68 7.62475e-69 2.42771e-69 7.60499e-70 2.34426e-70 7.10918e-71 2.1102e-71 5.73269e-72 0 
0 4.70003e-101 2.83048e-100 1.64299e-99 9.43748e-99 5.36792e-98 3.02313e-97 1.68566e-96 9.30483e-96 5.08429e-95 2.74977e-94 1.47186e-93 7.79644e-93 4.08645e-92 2.1192e-91 1.08725e-90 5.51792e-90 2.76989e-89 1.37514e-88 6.75113e-88 3.27723e-87 1.57286e-86 7.4623e-86 3.4995e-85 1.62195e-84 7.42872e-84 3.36188e-83 1.5031e-82 6.63854e-82 2.89588e-81 1.24754e-80 5.30681e-80 2.22873e-79 9.23986e-79 3.78088e-78 1.52678e-77 6.08343e-77 2.39136e-76 9.27245e-76 3.54593e-75 1.33714e-74 4.97127e-74 1.8219e-73 6.58068e-73 2.34224e-72 8.21346e-72 2.8371e-71 9.65153e-71 3.233e-70 1.06615e-69 3.46054e-69 1.10534e-68 3.47365e-68 1.07378e-67 3.26435e-67 9.75727e-67 2.86691e-66 8.27854e-66 2.3488e-65 6.54618e-65 1.79174e-64 4.81501e-64 1.27013e-63 3.28791e-63 8.35022e-63 2.08004e-62 5.08071e-62 1.21659e-61 2.85503e-61 6.56463e-61 1.47852e-60 3.26092e-60 7.041e-60 1.48797e-59 3.07682e-59 6.22367e-59 1.23116e-58 2.38122e-58 4.50188e-58 8.31761e-58 1.50148e-57 2.6477e-57 4.56004e-57 7.66913e-57 1.25935e-56 2.01893e-56 3.15968e-56 4.82728e-56 7.19956e-56 1.04831e-55 1.49042e-55 2.06947e-55 2.80712e-55 3.72115e-55 4.82288e-55 6.11499e-55 7.58986e-55 9.22905e-55 1.10039e-54 1.28774e-54 1.48069e-54 1.67474e-54 1.86548e-54 2.04889e-54 2.22152e-54 2.38061e-54 2.5241e-54 2.6506e-54 2.7593e-54 2.8499e-54 2.92251e-54 2.97764e-54 3.0161e-54 3.03905e-54 3.04791e-54 3.0443e-54 3.03003e-54 3.00689e-54 2.97663e-54 2.94083e-54 2.90083e-54 2.85771e-54 2.81234e-54 2.76545e-54 2.71772e-54 2.66988e-54 2.62272e-54 2.57717e-54 2.53417e-54 2.49468e-54 2.45958e-54 2.42966e-54 2.40558e-54 2.38794e-54 2.3773e-54 2.37418e-54 2.37904e-54 2.39216e-54 2.41349e-54 2.44246e-54 2.47782e-54 2.51756e-54 2.55896e-54 2.59873e-54 2.63331e-54 2.65928e-54 2.67374e-54 2.67476e-54 2.66162e-54 2.635e-54 2.59691e-54 2.55047e-54 2.49954e-54 2.4482e-54 2.40029e-54 2.35896e-54 2.32629e-54 2.30321e-54 2.2895e-54 2.28395e-54 2.28468e-54 2.28946e-54 2.296e-54 2.30226e-54 2.30655e-54 2.30769e-54 2.30499e-54 2.29829e-54 2.28789e-54 2.27454e-54 2.25938e-54 2.24386e-54 2.22964e-54 2.21846e-54 2.21196e-54 2.21153e-54 2.21819e-54 2.23244e-54 2.25433e-54 2.28348e-54 2.31925e-54 2.36083e-54 2.40743e-54 2.45831e-54 2.51273e-54 2.56983e-54 2.62844e-54 2.68679e-54 2.74237e-54 2.79183e-54 2.83096e-54 2.85496e-54 2.85876e-54 2.83751e-54 2.78715e-54 2.70488e-54 2.5897e-54 2.44263e-54 2.26686e-54 2.0675e-54 1.8513e-54 1.62599e-54 1.39962e-54 1.17989e-54 9.73516e-55 7.85731e-55 6.20059e-55 4.78242e-55 3.60394e-55 2.65282e-55 1.90698e-55 1.33854e-55 9.17309e-56 6.13727e-56 4.0087e-56 2.55629e-56 1.59155e-56 9.67541e-57 5.74394e-57 3.33044e-57 1.88632e-57 1.04382e-57 5.64445e-58 2.98326e-58 1.54146e-58 7.78834e-59 3.84887e-59 1.86083e-59 8.80381e-60 4.07699e-60 1.84852e-60 8.20805e-61 3.57026e-61 1.52166e-61 6.35631e-62 2.60303e-62 1.04532e-62 4.11748e-63 1.59123e-63 6.03482e-64 2.24664e-64 8.212e-65 2.94791e-65 1.03952e-65 3.60172e-66 1.22643e-66 4.10519e-67 1.35107e-67 4.3729e-68 1.39221e-68 4.36086e-69 1.34415e-69 4.07598e-70 1.20979e-70 3.28641e-71 0 
0 2.67096e-100 1.60837e-99 9.33504e-99 5.36161e-98 3.04933e-97 1.71718e-96 9.57391e-96 5.28432e-95 2.88718e-94 1.56137e-93 8.35681e-93 4.42628e-92 2.31984e-91 1.20297e-90 6.1714e-90 3.13186e-89 1.57204e-88 7.80412e-88 3.83118e-87 1.8597e-86 8.92496e-86 4.23421e-85 1.98559e-84 9.20254e-84 4.21476e-83 1.90735e-82 8.52761e-82 3.76623e-81 1.6429e-80 7.07753e-80 3.01065e-79 1.26441e-78 5.242e-78 2.14501e-77 8.66206e-77 3.45147e-76 1.35679e-75 5.26111e-75 2.01201e-74 7.58748e-74 2.82104e-73 1.03392e-72 3.73475e-72 1.32939e-71 4.66205e-71 1.6105e-70 5.4792e-70 1.83555e-69 6.05366e-69 1.96512e-68 6.27752e-68 1.97299e-67 6.09968e-67 1.85456e-66 5.54406e-66 1.62919e-65 4.70514e-65 1.33514e-64 3.72164e-64 1.0188e-63 2.7383e-63 7.22444e-63 1.87046e-62 4.75118e-62 1.18373e-61 2.89189e-61 6.92597e-61 1.62566e-60 3.73861e-60 8.42186e-60 1.85782e-59 4.0122e-59 8.48055e-59 1.75394e-58 3.54847e-58 7.02086e-58 1.35817e-57 2.56818e-57 4.74577e-57 8.56842e-57 1.51119e-56 2.60307e-56 4.37851e-56 7.1909e-56 1.15295e-55 1.80461e-55 2.7573e-55 4.11266e-55 5.98873e-55 8.51486e-55 1.18234e-54 1.6038e-54 2.126e-54 2.75538e-54 3.49343e-54 4.33574e-54 5.2717e-54 6.28488e-54 7.35407e-54 8.45486e-54 9.56153e-54 1.06489e-53 1.16941e-53 1.26774e-53 1.35832e-53 1.43997e-53 1.51193e-53 1.57374e-53 1.62524e-53 1.66649e-53 1.6978e-53 1.71963e-53 1.73264e-53 1.73765e-53 1.73558e-53 1.72745e-53 1.71428e-53 1.69708e-53 1.67673e-53 1.654e-53 1.62949e-53 1.60371e-53 1.57707e-53 1.54995e-53 1.52277e-53 1.49597e-53 1.47009e-53 1.44566e-53 1.42322e-53 1.40329e-53 1.38629e-53 1.37262e-53 1.36261e-53 1.35657e-53 1.35481e-53 1.35758e-53 1.36505e-53 1.37718e-53 1.39365e-53 1.41376e-53 1.43635e-53 1.45989e-53 1.4825e-53 1.50216e-53 1.51692e-53 1.52514e-53 1.52571e-53 1.51823e-53 1.50309e-53 1.48142e-53 1.45501e-53 1.42605e-53 1.39687e-53 1.36964e-53 1.34616e-53 1.32761e-53 1.31452e-53 1.30676e-53 1.30364e-53 1.30409e-53 1.30683e-53 1.31058e-53 1.31415e-53 1.3166e-53 1.31725e-53 1.31571e-53 1.31189e-53 1.30596e-53 1.29834e-53 1.28969e-53 1.28084e-53 1.27272e-53 1.26633e-53 1.26261e-53 1.26234e-53 1.2661e-53 1.27418e-53 1.28661e-53 1.30318e-53 1.3235e-53 1.34714e-53 1.37363e-53 1.40255e-53 1.43348e-53 1.46594e-53 1.49925e-53 1.53242e-53 1.56402e-53 1.59213e-53 1.61438e-53 1.62802e-53 1.63016e-53 1.61805e-53 1.58936e-53 1.5425e-53 1.47688e-53 1.39309e-53 1.29292e-53 1.1793e-53 1.05606e-53 9.27593e-54 7.98509e-54 6.73195e-54 5.55477e-54 4.48351e-54 3.53829e-54 2.7291e-54 2.05663e-54 1.51386e-54 1.08823e-54 7.63825e-55 5.23434e-55 3.50186e-55 2.28718e-55 1.45839e-55 9.07918e-56 5.51893e-56 3.27605e-56 1.89929e-56 1.0756e-56 5.95124e-57 3.21769e-57 1.70041e-57 8.78477e-58 4.43791e-58 2.19281e-58 1.06e-58 5.01423e-59 2.32169e-59 1.0525e-59 4.67273e-60 2.03218e-60 8.6599e-61 3.61689e-61 1.48096e-61 5.94638e-62 2.34191e-62 9.04923e-63 3.43149e-63 1.27731e-63 4.66825e-64 1.67558e-64 5.90789e-65 2.04672e-65 6.96858e-66 2.33232e-66 7.67516e-67 2.48392e-67 7.9074e-68 2.47665e-68 7.63318e-69 2.3145e-69 6.86917e-70 1.86592e-70 0 
0 1.50287e-99 9.04896e-99 5.25156e-98 3.01596e-97 1.71512e-96 9.65752e-96 5.38397e-95 2.97143e-94 1.62337e-93 8.77836e-93 4.69803e-92 2.48819e-91 1.30398e-90 6.76146e-90 3.46851e-89 1.7601e-88 8.83437e-88 4.38543e-87 2.15279e-86 1.04494e-85 5.01463e-85 2.37897e-84 1.11556e-83 5.1701e-83 2.36785e-82 1.07153e-81 4.79065e-81 2.11577e-80 9.22935e-80 3.97596e-79 1.69131e-78 7.10318e-78 2.94489e-77 1.20507e-76 4.86645e-76 1.93914e-75 7.6231e-75 2.95606e-74 1.13054e-73 4.26359e-73 1.5853e-72 5.81056e-72 2.09904e-71 7.47209e-71 2.62061e-70 9.05363e-70 3.08049e-69 1.03207e-68 3.40414e-68 1.10516e-67 3.53081e-67 1.10985e-66 3.43163e-66 1.0435e-65 3.11988e-65 9.16948e-65 2.64856e-64 7.5168e-64 2.0956e-63 5.73765e-63 1.54241e-62 4.07005e-62 1.05396e-61 2.67766e-61 6.67246e-61 1.63042e-60 3.90555e-60 9.16887e-60 2.10904e-59 4.75192e-59 1.04846e-58 2.26474e-58 4.78793e-58 9.90434e-58 2.00419e-57 3.96618e-57 7.67396e-57 1.45136e-56 2.68247e-56 4.84402e-56 8.54474e-56 1.47209e-55 2.47652e-55 4.0678e-55 6.52296e-55 1.02109e-54 1.56031e-54 2.32749e-54 3.38946e-54 4.81944e-54 6.6923e-54 9.07801e-54 1.20338e-53 1.55959e-53 1.97725e-53 2.45382e-53 2.98328e-53 3.55627e-53 4.16077e-53 4.78292e-53 5.40816e-53 6.02227e-53 6.61227e-53 7.1671e-53 7.67794e-53 8.13828e-53 8.54375e-53 8.89189e-53 9.1818e-53 9.41397e-53 9.59007e-53 9.71281e-53 9.7859e-53 9.81392e-53 9.80213e-53 9.75624e-53 9.68205e-53 9.58515e-53 9.47056e-53 9.34257e-53 9.20463e-53 9.05953e-53 8.90957e-53 8.75694e-53 8.60393e-53 8.45313e-53 8.30744e-53 8.16995e-53 8.0437e-53 7.93151e-53 7.83589e-53 7.75898e-53 7.70267e-53 7.66874e-53 7.65887e-53 7.67453e-53 7.71662e-53 7.78498e-53 7.87778e-53 7.99103e-53 8.11832e-53 8.25091e-53 8.37825e-53 8.48897e-53 8.57207e-53 8.61832e-53 8.62149e-53 8.57931e-53 8.49397e-53 8.3719e-53 8.22312e-53 8.05999e-53 7.89565e-53 7.74238e-53 7.61023e-53 7.50591e-53 7.43237e-53 7.38885e-53 7.37147e-53 7.3742e-53 7.38983e-53 7.41106e-53 7.43128e-53 7.44514e-53 7.4488e-53 7.4401e-53 7.41849e-53 7.38498e-53 7.34196e-53 7.29309e-53 7.24304e-53 7.19713e-53 7.16096e-53 7.1398e-53 7.13813e-53 7.15916e-53 7.20458e-53 7.27452e-53 7.36776e-53 7.4822e-53 7.61528e-53 7.76444e-53 7.92728e-53 8.10145e-53 8.28421e-53 8.47178e-53 8.65856e-53 8.83651e-53 8.99485e-53 9.12013e-53 9.19693e-53 9.20894e-53 9.14058e-53 8.97869e-53 8.71427e-53 8.34398e-53 7.87105e-53 7.3056e-53 6.66408e-53 5.96808e-53 5.24249e-53 4.51326e-53 3.80522e-53 3.14001e-53 2.53457e-53 2.00031e-53 1.54289e-53 1.16272e-53 8.55867e-54 6.15226e-54 4.31814e-54 2.95901e-54 1.97952e-54 1.2928e-54 8.24272e-55 5.13101e-55 3.11865e-55 1.85103e-55 1.07301e-55 6.07582e-56 3.36125e-56 1.81708e-56 9.60104e-57 4.9594e-57 2.505e-57 1.23755e-57 5.9813e-58 2.82892e-58 1.30963e-58 5.93601e-59 2.63494e-59 1.14575e-59 4.88168e-60 2.03855e-60 8.34568e-61 3.35044e-61 1.31933e-61 5.09716e-62 1.93258e-62 7.19261e-63 2.62836e-63 9.43275e-64 3.32544e-64 1.15192e-64 3.92153e-65 1.31235e-65 4.31818e-66 1.39735e-66 4.44794e-67 1.39299e-67 4.29291e-68 1.30157e-68 3.86261e-69 1.04916e-69 0 
0 8.37197e-99 5.04038e-98 2.9249e-97 1.67961e-96 9.55077e-96 5.3774e-95 2.99759e-94 1.65425e-93 9.03685e-93 4.88632e-92 2.61489e-91 1.38481e-90 7.25691e-90 3.76265e-89 1.93006e-88 9.79357e-88 4.91538e-87 2.43991e-86 1.19769e-85 5.81324e-85 2.78964e-84 1.32338e-83 6.20552e-83 2.8759e-82 1.31711e-81 5.96026e-81 2.66472e-80 1.17686e-79 5.13365e-79 2.21156e-78 9.40771e-78 3.95112e-77 1.63812e-76 6.70344e-76 2.70715e-75 1.07876e-74 4.24096e-74 1.64463e-73 6.29016e-73 2.37234e-72 8.82144e-72 3.23353e-71 1.16819e-70 4.1588e-70 1.4587e-69 5.03996e-69 1.71501e-68 5.74649e-68 1.89561e-67 6.15484e-67 1.96662e-66 6.18252e-66 1.91188e-65 5.81452e-65 1.7387e-64 5.11091e-64 1.4765e-63 4.19109e-63 1.16863e-62 3.20021e-62 8.60446e-62 2.27093e-61 5.88177e-61 1.4946e-60 3.72514e-60 9.10426e-60 2.1813e-59 5.122e-59 1.17842e-58 2.65568e-58 5.86074e-58 1.26622e-57 2.67752e-57 5.53991e-57 1.12126e-56 2.21938e-56 4.29503e-56 8.1247e-56 1.50194e-55 2.71272e-55 4.78603e-55 8.24679e-55 1.38759e-54 2.27953e-54 3.65586e-54 5.72353e-54 8.74694e-54 1.30489e-53 1.90042e-53 2.70233e-53 3.75261e-53 5.09045e-53 6.74786e-53 8.74508e-53 1.10865e-52 1.37577e-52 1.67247e-52 1.99348e-52 2.33204e-52 2.68037e-52 3.03029e-52 3.37384e-52 3.70375e-52 4.01385e-52 4.29923e-52 4.55627e-52 4.78257e-52 4.97679e-52 5.13845e-52 5.26786e-52 5.36597e-52 5.43431e-52 5.47497e-52 5.4905e-52 5.48384e-52 5.45819e-52 5.41677e-52 5.3627e-52 5.29879e-52 5.22741e-52 5.1505e-52 5.0696e-52 4.986e-52 4.9009e-52 4.8156e-52 4.73153e-52 4.65031e-52 4.57367e-52 4.50329e-52 4.44076e-52 4.38747e-52 4.34462e-52 4.31325e-52 4.29436e-52 4.28889e-52 4.29766e-52 4.32116e-52 4.35931e-52 4.41109e-52 4.47428e-52 4.5453e-52 4.61927e-52 4.69032e-52 4.75209e-52 4.79844e-52 4.82422e-52 4.82597e-52 4.80241e-52 4.75477e-52 4.68664e-52 4.60362e-52 4.51261e-52 4.42094e-52 4.33547e-52 4.26181e-52 4.2037e-52 4.16277e-52 4.13861e-52 4.12903e-52 4.13066e-52 4.13948e-52 4.1514e-52 4.16274e-52 4.17049e-52 4.17254e-52 4.16767e-52 4.15557e-52 4.13682e-52 4.11274e-52 4.08539e-52 4.05736e-52 4.03164e-52 4.01136e-52 3.99945e-52 3.99843e-52 4.01009e-52 4.03538e-52 4.07435e-52 4.12634e-52 4.19015e-52 4.26438e-52 4.34757e-52 4.4384e-52 4.53554e-52 4.63747e-52 4.74209e-52 4.84627e-52 4.94554e-52 5.03388e-52 5.10378e-52 5.14661e-52 5.15329e-52 5.11507e-52 5.0246e-52 4.87682e-52 4.66984e-52 4.40544e-52 4.08925e-52 3.73045e-52 3.34111e-52 2.93513e-52 2.52704e-52 2.13075e-52 1.75837e-52 1.4194e-52 1.12025e-52 8.64098e-53 6.51193e-53 4.79335e-53 3.44557e-53 2.41829e-53 1.65706e-53 1.10848e-53 7.2388e-54 4.61497e-54 2.87249e-54 1.74572e-54 1.03602e-54 6.00483e-55 3.39972e-55 1.88051e-55 1.01644e-55 5.36979e-56 2.7733e-56 1.40056e-56 6.91801e-57 3.34302e-57 1.58084e-57 7.31712e-58 3.31595e-58 1.47166e-58 6.3981e-59 2.72555e-59 1.13797e-59 4.65798e-60 1.86967e-60 7.36115e-61 2.84348e-61 1.07793e-61 4.0112e-62 1.46558e-62 5.25896e-63 1.85375e-63 6.42044e-64 2.18546e-64 7.31278e-65 2.40593e-65 7.78465e-66 2.47768e-66 7.75874e-67 2.39085e-67 7.24815e-68 2.15083e-68 5.84166e-69 0 
0 4.61682e-98 2.77933e-97 1.61268e-96 9.25989e-96 5.265e-95 2.96412e-94 1.65219e-93 9.11706e-93 4.98011e-92 2.6926e-91 1.44083e-90 7.62998e-90 3.99814e-89 2.07288e-88 1.06323e-87 5.39481e-87 2.70752e-86 1.34391e-85 6.59663e-85 3.20171e-84 1.53638e-83 7.28827e-83 3.41749e-82 1.58378e-81 7.25331e-81 3.28228e-80 1.46744e-79 6.48087e-79 2.82707e-78 1.21791e-77 5.18091e-77 2.17596e-76 9.02168e-76 3.69193e-75 1.49102e-74 5.94173e-74 2.33601e-73 9.05941e-73 3.46513e-72 1.30696e-71 4.86023e-71 1.78167e-70 6.43721e-70 2.29188e-69 8.03956e-69 2.77803e-68 9.45416e-68 3.16817e-67 1.04522e-66 3.39414e-66 1.08465e-65 3.41033e-65 1.05476e-64 3.20828e-64 9.59517e-64 2.82096e-63 8.15089e-63 2.31406e-62 6.45364e-62 1.76761e-61 4.75352e-61 1.25482e-60 3.25067e-60 8.26189e-60 2.05962e-59 5.0348e-59 1.20656e-58 2.83379e-58 6.52114e-58 1.46993e-57 3.24467e-57 7.01176e-57 1.48302e-56 3.06912e-56 6.21318e-56 1.23008e-55 2.38102e-55 4.505e-55 8.32968e-55 1.50476e-54 2.65534e-54 4.57623e-54 7.70118e-54 1.26535e-53 2.02963e-53 3.17796e-53 4.85724e-53 7.24685e-53 1.0555e-52 1.50098e-52 2.08443e-52 2.8276e-52 3.74822e-52 4.85749e-52 6.15774e-52 7.64087e-52 9.28784e-52 1.10693e-51 1.29475e-51 1.48793e-51 1.68191e-51 1.87227e-51 2.05499e-51 2.22665e-51 2.38455e-51 2.52671e-51 2.6518e-51 2.7591e-51 2.84839e-51 2.91982e-51 2.97395e-51 3.01164e-51 3.03403e-51 3.04256e-51 3.03883e-51 3.02462e-51 3.00172e-51 2.97184e-51 2.93653e-51 2.89711e-51 2.85463e-51 2.80996e-51 2.7638e-51 2.71681e-51 2.66971e-51 2.62329e-51 2.57844e-51 2.53612e-51 2.49727e-51 2.46275e-51 2.43334e-51 2.40969e-51 2.39238e-51 2.38197e-51 2.37896e-51 2.38382e-51 2.39682e-51 2.41791e-51 2.44653e-51 2.48145e-51 2.5207e-51 2.56157e-51 2.60083e-51 2.63496e-51 2.66057e-51 2.67481e-51 2.67576e-51 2.66273e-51 2.63639e-51 2.59873e-51 2.55284e-51 2.50255e-51 2.45191e-51 2.4047e-51 2.36403e-51 2.33197e-51 2.30942e-51 2.29613e-51 2.29091e-51 2.29187e-51 2.29679e-51 2.30343e-51 2.30972e-51 2.31402e-51 2.31516e-51 2.31245e-51 2.30575e-51 2.29535e-51 2.282e-51 2.26683e-51 2.25129e-51 2.23702e-51 2.22575e-51 2.21912e-51 2.21851e-51 2.22491e-51 2.23885e-51 2.26036e-51 2.28907e-51 2.32432e-51 2.36533e-51 2.41128e-51 2.46146e-51 2.51512e-51 2.57143e-51 2.62923e-51 2.68679e-51 2.74164e-51 2.79045e-51 2.82908e-51 2.85275e-51 2.85643e-51 2.83528e-51 2.78521e-51 2.70341e-51 2.58882e-51 2.44241e-51 2.26728e-51 2.06851e-51 1.85278e-51 1.62778e-51 1.40157e-51 1.18186e-51 9.75373e-52 7.87388e-52 6.21462e-52 4.79376e-52 3.61267e-52 2.65923e-52 1.91148e-52 1.34154e-52 9.19204e-53 6.14853e-53 4.01492e-53 2.5594e-53 1.59288e-53 9.67938e-54 5.74362e-54 3.32857e-54 1.88424e-54 1.04208e-54 5.63167e-55 2.97466e-55 1.53604e-55 7.75586e-56 3.83027e-56 1.85058e-56 8.74933e-57 4.04897e-57 1.83456e-57 8.14045e-58 3.53843e-58 1.50707e-58 6.29118e-59 2.57465e-59 1.03326e-59 4.06737e-60 1.57088e-60 5.95404e-61 2.21526e-61 8.09264e-62 2.90345e-62 1.02329e-62 3.54366e-63 1.20606e-63 4.03508e-64 1.32739e-64 4.29439e-65 1.36665e-65 4.27912e-66 1.31847e-66 3.9967e-67 1.18588e-67 3.22061e-68 0 
0 2.52017e-97 1.51701e-96 8.80152e-96 5.05333e-95 2.87298e-94 1.61732e-93 9.01419e-93 4.9738e-92 2.7167e-91 1.46874e-90 7.85884e-90 4.16142e-89 2.18047e-88 1.13043e-87 5.79796e-87 2.94173e-86 1.47632e-85 7.32758e-85 3.59665e-84 1.7456e-83 8.37624e-83 3.97342e-82 1.86312e-81 8.6342e-81 3.95421e-80 1.78936e-79 7.99986e-79 3.53311e-78 1.54122e-77 6.63972e-77 2.82456e-76 1.18633e-75 4.91878e-75 2.01298e-74 8.12994e-74 3.23994e-73 1.27386e-72 4.94054e-72 1.88983e-71 7.12848e-71 2.65109e-70 9.71921e-70 3.51189e-69 1.25048e-68 4.38695e-68 1.51605e-67 5.16002e-67 1.72938e-66 5.70615e-66 1.85321e-65 5.92308e-65 1.86259e-64 5.76162e-64 1.7528e-63 5.24307e-63 1.54172e-62 4.45545e-62 1.26515e-61 3.52903e-61 9.66771e-61 2.6004e-60 6.86588e-60 1.77902e-59 4.52254e-59 1.12768e-58 2.75727e-58 6.60914e-58 1.55262e-57 3.57374e-57 8.05748e-57 1.779e-56 3.84534e-56 8.13501e-56 1.68395e-55 3.40981e-55 6.75227e-55 1.30731e-54 2.47403e-54 4.57544e-54 8.26725e-54 1.45916e-53 2.51519e-53 4.23349e-53 6.95701e-53 1.11608e-52 1.74778e-52 2.67166e-52 3.98644e-52 5.80672e-52 8.258e-52 1.14685e-51 1.55577e-51 2.0623e-51 2.67255e-51 3.38776e-51 4.20342e-51 5.10897e-51 6.08819e-51 7.12025e-51 8.18131e-51 9.24636e-51 1.02911e-50 1.12934e-50 1.22345e-50 1.30998e-50 1.38784e-50 1.45631e-50 1.51503e-50 1.56386e-50 1.60291e-50 1.63248e-50 1.65306e-50 1.66527e-50 1.6699e-50 1.66784e-50 1.66005e-50 1.6475e-50 1.63115e-50 1.61183e-50 1.59026e-50 1.56703e-50 1.5426e-50 1.51735e-50 1.49166e-50 1.4659e-50 1.44052e-50 1.41599e-50 1.39285e-50 1.37161e-50 1.35274e-50 1.33666e-50 1.32373e-50 1.31428e-50 1.30859e-50 1.30696e-50 1.30962e-50 1.31674e-50 1.32829e-50 1.34395e-50 1.36306e-50 1.38455e-50 1.40692e-50 1.42841e-50 1.44708e-50 1.4611e-50 1.46889e-50 1.4694e-50 1.46226e-50 1.44783e-50 1.42722e-50 1.4021e-50 1.37458e-50 1.34687e-50 1.32105e-50 1.29881e-50 1.28129e-50 1.26898e-50 1.26175e-50 1.25893e-50 1.25949e-50 1.26221e-50 1.26587e-50 1.26933e-50 1.27169e-50 1.27232e-50 1.27083e-50 1.26715e-50 1.26144e-50 1.25411e-50 1.24578e-50 1.23724e-50 1.2294e-50 1.2232e-50 1.21954e-50 1.21918e-50 1.22266e-50 1.23027e-50 1.24203e-50 1.25773e-50 1.27702e-50 1.29945e-50 1.3246e-50 1.35205e-50 1.38141e-50 1.41221e-50 1.44384e-50 1.47533e-50 1.50535e-50 1.53207e-50 1.55321e-50 1.56617e-50 1.56819e-50 1.55659e-50 1.52915e-50 1.48431e-50 1.42148e-50 1.34119e-50 1.24512e-50 1.13606e-50 1.01767e-50 8.94159e-51 7.69963e-51 6.49311e-51 5.35902e-51 4.3264e-51 3.41485e-51 2.63417e-51 1.98518e-51 1.46126e-51 1.05034e-51 7.37136e-52 5.05049e-52 3.37803e-52 2.20563e-52 1.40589e-52 8.74874e-53 5.31565e-53 3.1538e-53 1.82744e-53 1.03432e-53 5.71933e-54 3.09034e-54 1.63203e-54 8.42582e-55 4.25361e-55 2.10026e-55 1.01453e-55 4.79565e-56 2.21886e-56 1.00515e-56 4.45924e-57 1.93793e-57 8.25229e-58 3.44419e-58 1.40926e-58 5.65455e-59 2.22547e-59 8.59358e-60 3.2566e-60 1.21144e-60 4.4248e-61 1.58725e-61 5.59325e-62 1.93664e-62 6.59026e-63 2.20457e-63 7.25118e-64 2.34561e-64 7.46373e-65 2.33669e-65 7.19893e-66 2.18199e-66 6.47364e-67 1.75797e-67 0 