# vtk DataFile Version 3.0
Gray-Scott Simulation Output
ASCII
DATASET STRUCTURED_POINTS
DIMENSIONS 256 256 1
SPACING 1.0 1.0 1.0
ORIGIN 0 0 0
POINT_DATA 65536
SCALARS u double
LOOKUP_TABLE default
0 0 0 0 0 0 0 0 0 0 0 0 0 0 0 0 0 0 0 0 0 0 0 0 0 0 0 0 0 0 0 0 0 0 0 0 0 0 0 0 0 0 0 0 0 0 0 0 0 0 0 0 0 0 0 0 0 0 0 0 0 0 0 0 0 0 0 0 0 0 0 0 0 0 0 0 0 0 0 0 0 0 0 0 0 0 0 0 0 0 0 0 0 0 0 0 0 0 0 0 0 0 0 0 0 0 0 0 0 0 0 0 0 0 0 0 0 0 0 0 0 0 0 0 0 0 0 0 0 0 0 0 0 0 0 0 0 0 0 0 0 0 0 0 0 0 0 0 0 0 0 0 0 0 0 0 0 0 0 0 0 0 0 0 0 0 0 0 0 0 0 0 0 0 0 0 0 0 0 0 0 0 0 0 0 0 0 0 0 0 0 0 0 0 0 0 0 0 0 0 0 0 0 0 0 0 0 0 0 0 0 0 0 0 0 0 0 0 0 0 0 0 0 0 0 0 0 0 0 0 0 0 0 0 0 0 0 0 0 0 0 0 0 0 0 0 0 0 0 0 0 0 0 0 0 0 
0 8.25139e-148 1.01705e-146 1.23261e-145 1.4781e-144 1.75364e-143 2.05826e-142 2.38965e-141 2.74408e-140 3.11631e-139 3.4996e-138 3.8858e-137 4.26556e-136 4.62865e-135 4.96436e-134 5.26198e-133 5.51136e-132 5.7034e-131 5.83068e-130 5.88784e-129 5.87197e-128 5.78285e-127 5.62301e-126 5.39758e-125 5.11408e-124 4.78198e-123 4.41215e-122 4.01629e-121 3.60628e-120 3.19359e-119 2.78875e-118 2.40089e-117 2.03745e-116 1.704e-115 1.40423e-114 1.14001e-113 9.11563e-113 7.17768e-112 5.56425e-111 4.24577e-110 3.18813e-109 2.35527e-108 1.71146e-107 1.22294e-106 8.59103e-106 5.93157e-105 4.02403e-104 2.68161e-103 1.75488e-102 1.12742e-101 7.10851e-101 4.39726e-100 2.66781e-99 1.58689e-98 9.25133e-98 5.28406e-97 2.95579e-96 1.61863e-95 8.67393e-95 4.54667e-94 2.33018e-93 1.16709e-92 5.71004e-92 2.72756e-91 1.27143e-90 5.78045e-90 2.56179e-89 1.10609e-88 4.64987e-88 1.90208e-87 7.56616e-87 2.92474e-86 1.0979e-85 3.99934e-85 1.41265e-84 4.83462e-84 1.60184e-83 5.13375e-83 1.59013e-82 4.75573e-82 1.3721e-81 3.81518e-81 1.02136e-80 2.62991e-80 6.50658e-80 1.54513e-79 3.51827e-79 7.67361e-79 1.60158e-78 3.1957e-78 6.09086e-78 1.10806e-77 1.92291e-77 3.18202e-77 5.02057e-77 7.55474e-77 1.08495e-76 1.48895e-76 1.95643e-76 2.46799e-76 2.9994e-76 3.5269e-76 4.03193e-76 4.50375e-76 4.93878e-76 5.33756e-76 5.70087e-76 6.02725e-76 6.31272e-76 6.55225e-76 6.74171e-76 6.87892e-76 6.96346e-76 6.99614e-76 6.97894e-76 6.91592e-76 6.81453e-76 6.68626e-76 6.54556e-76 6.4068e-76 6.28027e-76 6.16881e-76 6.06686e-76 5.96287e-76 5.84448e-76 5.70434e-76 5.54419e-76 5.37508e-76 5.21374e-76 5.0764e-76 4.97288e-76 4.90316e-76 4.85811e-76 4.82392e-76 4.78849e-76 4.74724e-76 4.70605e-76 4.68006e-76 4.68893e-76 4.75024e-76 4.87351e-76 5.05674e-76 5.28613e-76 5.53845e-76 5.78487e-76 5.99509e-76 6.14125e-76 6.20156e-76 6.16346e-76 6.02635e-76 5.80289e-76 5.51845e-76 5.20798e-76 4.91056e-76 4.66226e-76 4.48911e-76 4.40193e-76 4.3949e-76 4.44835e-76 4.53522e-76 4.6289e-76 4.70979e-76 4.76824e-76 4.8035e-76 4.81972e-76 4.82152e-76 4.81111e-76 4.7879e-76 4.74988e-76 4.69555e-76 4.62546e-76 4.54314e-76 4.45562e-76 4.37349e-76 4.31025e-76 4.28024e-76 4.29522e-76 4.36047e-76 4.47194e-76 4.61615e-76 4.7735e-76 4.92435e-76 5.05578e-76 5.16617e-76 5.26567e-76 5.37215e-76 5.50445e-76 5.67561e-76 5.8886e-76 6.13507e-76 6.39667e-76 6.64731e-76 6.85569e-76 6.98803e-76 7.01154e-76 6.89873e-76 6.63223e-76 6.20903e-76 5.64279e-76 4.96358e-76 4.21443e-76 3.4454e-76 2.70594e-76 2.03766e-76 1.46885e-76 1.01231e-76 6.66417e-77 4.18834e-77 2.51246e-77 1.4386e-77 7.86476e-78 4.10723e-78 2.05025e-78 9.79011e-79 4.47571e-79 1.96076e-79 8.23933e-80 3.3242e-80 1.28896e-80 4.80813e-81 1.72712e-81 5.97994e-82 1.99759e-82 6.44389e-83 2.00913e-83 6.05988e-84 1.7696e-84 5.00714e-85 1.37388e-85 3.65823e-86 9.45962e-87 2.37715e-87 5.80907e-88 1.38135e-88 3.19828e-89 7.21439e-90 1.58636e-90 3.40222e-91 7.12049e-92 1.455e-92 2.90428e-93 5.66548e-94 1.08058e-94 2.01599e-95 3.68058e-96 6.57833e-97 1.15149e-97 1.97473e-98 3.31914e-99 5.4697e-100 8.84039e-101 1.40182e-101 2.18154e-102 3.33142e-103 4.89372e-104 0 
0 1.01649e-146 1.25233e-145 1.51705e-144 1.81832e-143 2.15629e-142 2.52967e-141 2.93559e-140 3.36942e-139 3.82471e-138 4.29314e-137 4.7647e-136 5.22795e-135 5.67036e-134 6.07885e-133 6.44035e-132 6.74249e-131 6.97427e-130 7.12668e-129 7.1933e-128 7.17068e-127 7.05869e-126 6.86051e-125 6.58254e-124 6.23404e-123 5.82663e-122 5.37363e-121 4.88936e-120 4.3883e-119 3.88443e-118 3.39054e-117 2.91771e-116 2.47497e-115 2.06903e-114 1.70432e-113 1.38304e-112 1.10543e-111 8.7005e-111 6.74193e-110 5.14225e-109 3.85969e-108 2.85022e-107 2.07027e-106 1.47873e-105 1.03837e-104 7.16639e-104 4.85979e-103 3.23727e-102 2.11768e-101 1.35997e-100 8.57139e-100 5.30014e-99 3.21435e-98 1.91126e-97 1.11382e-96 6.35938e-96 3.55598e-95 1.94659e-94 1.04276e-93 5.46395e-93 2.79929e-92 1.40156e-91 6.8548e-91 3.27327e-90 1.52529e-89 6.93229e-89 3.07125e-88 1.32563e-87 5.57102e-87 2.27817e-86 9.0594e-86 3.50091e-85 1.3138e-84 4.78439e-84 1.68947e-83 5.78039e-83 1.91468e-82 6.13476e-82 1.8997e-81 5.68019e-81 1.63842e-80 4.55467e-80 1.21906e-79 3.1383e-79 7.7628e-79 1.84309e-78 4.19596e-78 9.15017e-78 1.90945e-77 3.80946e-77 7.25968e-77 1.32053e-76 2.29139e-76 3.79143e-76 5.98163e-76 9.00032e-76 1.29249e-75 1.7737e-75 2.33053e-75 2.93984e-75 3.57282e-75 4.2011e-75 4.80258e-75 5.36442e-75 5.88233e-75 6.35693e-75 6.78916e-75 7.17732e-75 7.51671e-75 7.80142e-75 8.02657e-75 8.18957e-75 8.28997e-75 8.32874e-75 8.30825e-75 8.23332e-75 8.11282e-75 7.9604e-75 7.79323e-75 7.62837e-75 7.47803e-75 7.34556e-75 7.22434e-75 7.10066e-75 6.95982e-75 6.79312e-75 6.6026e-75 6.40144e-75 6.20951e-75 6.04614e-75 5.92297e-75 5.84001e-75 5.78641e-75 5.74578e-75 5.70375e-75 5.65487e-75 5.60611e-75 5.57546e-75 5.58625e-75 5.65937e-75 5.8061e-75 6.02406e-75 6.29684e-75 6.59682e-75 6.88974e-75 7.13957e-75 7.31322e-75 7.38475e-75 7.33928e-75 7.17606e-75 6.91019e-75 6.57181e-75 6.2025e-75 5.84871e-75 5.55334e-75 5.34734e-75 5.24361e-75 5.23522e-75 5.29879e-75 5.40215e-75 5.51367e-75 5.61e-75 5.67965e-75 5.72173e-75 5.74116e-75 5.74342e-75 5.73117e-75 5.7037e-75 5.6586e-75 5.59406e-75 5.51072e-75 5.41275e-75 5.3085e-75 5.21058e-75 5.13506e-75 5.09902e-75 5.11647e-75 5.19371e-75 5.32597e-75 5.49723e-75 5.68419e-75 5.86351e-75 6.01981e-75 6.15116e-75 6.26961e-75 6.39638e-75 6.55385e-75 6.75753e-75 7.01091e-75 7.30408e-75 7.61519e-75 7.91323e-75 8.16096e-75 8.31822e-75 8.346e-75 8.21162e-75 7.89442e-75 7.39078e-75 6.71694e-75 5.90864e-75 5.01709e-75 4.10181e-75 3.22168e-75 2.4262e-75 1.74908e-75 1.20555e-75 7.93712e-76 4.98894e-76 2.99309e-76 1.71403e-76 9.37197e-77 4.89512e-77 2.44396e-77 1.16723e-77 5.33719e-78 2.33864e-78 9.82929e-79 3.96655e-79 1.53838e-79 5.73992e-80 2.06234e-80 7.14239e-81 2.38653e-81 7.70061e-82 2.40163e-82 7.24576e-83 2.11651e-83 5.99051e-84 1.64419e-84 4.37935e-85 1.13279e-85 2.84753e-86 6.96081e-87 1.65577e-87 3.83492e-88 8.65339e-89 1.90343e-89 4.08365e-90 8.54964e-91 1.74766e-91 3.48968e-92 6.80992e-93 1.29934e-93 2.42501e-94 4.42898e-95 7.91893e-96 1.38667e-96 2.37898e-97 4.00014e-98 6.5945e-99 1.06625e-99 1.69142e-100 2.63327e-101 4.02287e-102 5.9117e-103 0 
0 1.23124e-145 1.51619e-144 1.83581e-143 2.19935e-142 2.6069e-141 3.05687e-140 3.54571e-139 4.06781e-138 4.6153e-137 5.17813e-136 5.74423e-135 6.29979e-134 6.82973e-133 7.31835e-132 7.74999e-131 8.10984e-130 8.38478e-129 8.5641e-128 8.64021e-127 8.60913e-126 8.47084e-125 8.22929e-124 7.8923e-123 7.47111e-122 6.97973e-121 6.43422e-120 5.85177e-119 5.24976e-118 4.64493e-117 4.05256e-116 3.48589e-115 2.95564e-114 2.4698e-113 2.03356e-112 1.64951e-111 1.31785e-110 1.0368e-109 8.03066e-109 6.12262e-108 4.59361e-107 3.39078e-106 2.46189e-105 1.75772e-104 1.23378e-103 8.51156e-103 5.76967e-102 3.84184e-101 2.51216e-100 1.61266e-99 1.016e-98 6.28004e-98 3.80715e-97 2.26288e-96 1.31823e-95 7.52365e-95 4.20543e-94 2.30126e-93 1.2323e-92 6.45479e-92 3.30574e-91 1.65455e-90 8.0893e-90 3.86143e-89 1.79875e-88 8.17242e-88 3.61948e-87 1.56175e-86 6.56124e-86 2.68227e-85 1.0663e-84 4.11937e-84 1.54543e-83 5.62629e-83 1.9862e-82 6.79375e-82 2.24973e-81 7.20642e-81 2.23098e-80 6.6691e-80 1.92321e-79 5.34514e-79 1.43032e-78 3.68137e-78 9.1043e-78 2.16119e-77 4.91925e-77 1.07257e-76 2.23787e-76 4.46403e-76 8.50598e-76 1.54705e-75 2.68416e-75 4.44093e-75 7.00579e-75 1.05407e-74 1.51362e-74 2.07708e-74 2.72909e-74 3.44255e-74 4.1837e-74 4.91934e-74 5.62354e-74 6.28122e-74 6.88733e-74 7.44256e-74 7.94805e-74 8.40183e-74 8.79847e-74 9.13111e-74 9.39411e-74 9.58447e-74 9.70167e-74 9.74687e-74 9.72287e-74 9.63529e-74 9.49452e-74 9.3165e-74 9.12126e-74 8.92872e-74 8.75314e-74 8.59838e-74 8.45671e-74 8.31211e-74 8.14741e-74 7.95247e-74 7.7297e-74 7.49448e-74 7.27006e-74 7.07902e-74 6.93497e-74 6.83793e-74 6.77526e-74 6.7278e-74 6.67878e-74 6.62185e-74 6.56511e-74 6.52958e-74 6.5425e-74 6.62821e-74 6.7999e-74 7.05476e-74 7.37361e-74 7.72419e-74 8.06646e-74 8.35832e-74 8.5611e-74 8.6445e-74 8.59113e-74 8.40015e-74 8.08918e-74 7.69348e-74 7.26164e-74 6.84796e-74 6.50257e-74 6.26167e-74 6.14034e-74 6.13049e-74 6.20483e-74 6.32574e-74 6.45623e-74 6.56899e-74 6.6506e-74 6.69996e-74 6.72283e-74 6.72563e-74 6.71147e-74 6.6795e-74 6.62691e-74 6.55155e-74 6.45413e-74 6.33952e-74 6.21745e-74 6.10269e-74 6.01402e-74 5.97146e-74 5.99142e-74 6.0813e-74 6.23555e-74 6.43546e-74 6.65382e-74 6.86335e-74 7.04607e-74 7.19971e-74 7.33832e-74 7.48668e-74 7.67093e-74 7.90917e-74 8.20549e-74 8.54827e-74 8.91198e-74 9.26034e-74 9.54983e-74 9.73352e-74 9.76579e-74 9.60843e-74 9.23729e-74 8.64809e-74 7.85982e-74 6.91424e-74 5.87123e-74 4.80039e-74 3.77061e-74 2.8398e-74 2.04741e-74 1.4113e-74 9.29276e-75 5.84171e-75 3.50514e-75 2.00754e-75 1.09784e-75 5.73509e-76 2.86382e-76 1.36799e-76 6.2564e-77 2.74197e-77 1.15269e-77 4.65263e-78 1.80489e-78 6.73587e-79 2.42077e-79 8.38588e-80 2.80275e-80 9.04608e-81 2.82203e-81 8.51651e-82 2.48842e-82 7.04524e-83 1.93426e-83 5.15355e-84 1.33346e-84 3.35305e-85 8.1992e-86 1.95099e-86 4.52018e-87 1.02031e-87 2.24509e-88 4.81833e-89 1.00913e-89 2.06353e-90 4.12191e-91 8.0466e-92 1.53586e-92 2.86752e-93 5.23912e-94 9.371e-95 1.64157e-95 2.81737e-96 4.73911e-97 7.81581e-98 1.26422e-98 2.00627e-99 3.12468e-100 4.77552e-101 7.02047e-102 0 
0 1.4756e-144 1.81624e-143 2.19808e-142 2.63211e-141 3.11838e-140 3.65491e-139 4.2374e-138 4.85907e-137 5.51048e-136 6.1796e-135 6.852e-134 7.5112e-133 8.13929e-132 8.71757e-131 9.22749e-130 9.65152e-129 9.97415e-128 1.01828e-126 1.02686e-125 1.02271e-124 1.00582e-123 9.76703e-123 9.36287e-122 8.85923e-121 8.27287e-120 7.62291e-119 6.92978e-118 6.21413e-117 5.49578e-116 4.79281e-115 4.12084e-114 3.49249e-113 2.91714e-112 2.40086e-111 1.94661e-110 1.55455e-109 1.2225e-108 9.46505e-108 7.21319e-107 5.40958e-106 3.99143e-105 2.8968e-104 2.06739e-103 1.45055e-102 1.0003e-101 6.77792e-101 4.5114e-100 2.94881e-99 1.89223e-98 1.19167e-97 7.363e-97 4.46197e-96 2.65107e-95 1.54379e-94 8.80772e-94 4.92136e-93 2.69204e-92 1.44104e-91 7.54545e-91 3.86294e-90 1.93276e-89 9.44623e-89 4.50763e-88 2.09906e-87 9.53368e-87 4.22099e-86 1.82071e-85 7.64676e-85 3.12507e-84 1.24195e-83 4.79652e-83 1.79895e-82 6.54737e-82 2.31071e-81 7.90161e-81 2.6159e-80 8.3772e-80 2.59279e-79 7.74878e-79 2.23405e-78 6.20764e-78 1.66076e-77 4.27361e-77 1.05669e-76 2.50791e-76 5.70746e-76 1.24422e-75 2.59562e-75 5.17694e-75 9.86314e-75 1.79368e-74 3.11176e-74 5.14794e-74 8.12054e-74 1.22172e-73 1.75428e-73 2.40724e-73 3.16282e-73 3.9896e-73 4.84846e-73 5.70091e-73 6.51685e-73 7.27876e-73 7.98076e-73 8.62361e-73 9.20864e-73 9.73365e-73 1.01924e-72 1.0577e-72 1.0881e-72 1.1101e-72 1.12364e-72 1.12886e-72 1.12607e-72 1.11594e-72 1.09967e-72 1.07909e-72 1.05653e-72 1.03427e-72 1.01398e-72 9.96087e-73 9.79702e-73 9.62972e-73 9.43913e-73 9.21353e-73 8.95574e-73 8.68355e-73 8.42385e-73 8.20276e-73 8.03604e-73 7.92372e-73 7.8512e-73 7.79635e-73 7.73978e-73 7.67414e-73 7.60882e-73 7.56807e-73 7.58335e-73 7.68279e-73 7.88159e-73 8.17651e-73 8.54536e-73 8.95083e-73 9.3466e-73 9.68403e-73 9.91837e-73 1.00146e-72 9.95261e-73 9.73145e-73 9.37151e-73 8.91358e-73 8.41385e-73 7.93515e-73 7.53546e-73 7.25666e-73 7.11621e-73 7.10479e-73 7.19081e-73 7.33078e-73 7.48189e-73 7.61254e-73 7.70715e-73 7.76445e-73 7.7911e-73 7.79453e-73 7.77832e-73 7.74152e-73 7.68083e-73 7.59374e-73 7.48105e-73 7.34835e-73 7.20689e-73 7.07377e-73 6.97075e-73 6.92101e-73 6.94358e-73 7.04708e-73 7.2251e-73 7.45604e-73 7.70843e-73 7.95073e-73 8.16212e-73 8.33997e-73 8.50048e-73 8.67231e-73 8.88566e-73 9.16145e-73 9.50439e-73 9.90103e-73 1.03218e-72 1.07248e-72 1.10596e-72 1.12719e-72 1.1309e-72 1.11266e-72 1.06968e-72 1.00147e-72 9.10209e-73 8.00735e-73 6.79976e-73 5.55988e-73 4.36745e-73 3.28954e-73 2.37186e-73 1.6351e-73 1.07674e-73 6.76947e-74 4.06232e-74 2.32697e-74 1.2727e-74 6.64961e-75 3.32103e-75 1.58668e-75 7.25787e-76 3.18151e-76 1.33774e-76 5.40073e-77 2.09556e-77 7.8225e-78 2.81197e-78 9.74347e-79 3.25733e-79 1.0516e-79 3.28149e-80 9.90586e-81 2.8952e-81 8.1993e-82 2.25178e-82 6.00134e-83 1.55331e-83 3.90709e-84 9.55706e-85 2.27483e-85 5.27223e-86 1.19047e-86 2.62039e-87 5.62571e-88 1.17864e-88 2.411e-89 4.8177e-90 9.40829e-91 1.79642e-91 3.35524e-92 6.1325e-93 1.09731e-93 1.92295e-94 3.30155e-95 5.5557e-96 9.16611e-97 1.48322e-97 2.35473e-98 3.66886e-99 5.60946e-100 8.24962e-101 0 
0 1.74965e-143 2.15255e-142 2.60386e-141 3.11654e-140 3.69058e-139 4.32352e-138 5.01023e-137 5.74259e-136 6.5094e-135 7.29643e-134 8.08659e-133 8.86047e-132 9.59695e-131 1.02741e-129 1.087e-128 1.13644e-127 1.17389e-126 1.1979e-125 1.20745e-124 1.20202e-123 1.18164e-122 1.14692e-121 1.09897e-120 1.03939e-119 9.70164e-119 8.93547e-118 8.11942e-117 7.27771e-116 6.4336e-115 5.60823e-114 4.81984e-113 4.08314e-112 3.40902e-111 2.80449e-110 2.2729e-109 1.81435e-108 1.42621e-107 1.10376e-106 8.40813e-106 6.30311e-105 4.64881e-104 3.37251e-103 2.40592e-102 1.68738e-101 1.16315e-100 7.87827e-100 5.24171e-99 3.42482e-98 2.19682e-97 1.38296e-96 8.54164e-96 5.17425e-95 3.07312e-94 1.78888e-93 1.02023e-92 5.69849e-92 3.11601e-91 1.66739e-90 8.72755e-90 4.46656e-89 2.23399e-88 1.09148e-87 5.20664e-87 2.42376e-86 1.10048e-85 4.87077e-85 2.10032e-84 8.81836e-84 3.60277e-83 1.43137e-82 5.52644e-82 2.07211e-81 7.53945e-81 2.66011e-80 9.09396e-80 3.00986e-79 9.63638e-79 2.98178e-78 8.90922e-78 2.56803e-77 7.13409e-77 1.90822e-76 4.9094e-76 1.21366e-75 2.87995e-75 6.55302e-75 1.42832e-74 2.97926e-74 5.94128e-74 1.1318e-73 2.05803e-73 3.57002e-73 5.90557e-73 9.31499e-73 1.40134e-72 2.01211e-72 2.76096e-72 3.62747e-72 4.57565e-72 5.5606e-72 6.53816e-72 7.47377e-72 8.34728e-72 9.15188e-72 9.88844e-72 1.05585e-71 1.11596e-71 1.16846e-71 1.21247e-71 1.24725e-71 1.27241e-71 1.28789e-71 1.29384e-71 1.29065e-71 1.27905e-71 1.26043e-71 1.23689e-71 1.21109e-71 1.18564e-71 1.16242e-71 1.14195e-71 1.1232e-71 1.10404e-71 1.08222e-71 1.05638e-71 1.02686e-71 9.95692e-72 9.65953e-72 9.40634e-72 9.21539e-72 9.08673e-72 9.00368e-72 8.94095e-72 8.87635e-72 8.80148e-72 8.72705e-72 8.6808e-72 8.69868e-72 8.81284e-72 9.04065e-72 9.37837e-72 9.80061e-72 1.02647e-71 1.07176e-71 1.11036e-71 1.13716e-71 1.14815e-71 1.14102e-71 1.11568e-71 1.07445e-71 1.022e-71 9.64778e-72 9.09959e-72 8.64188e-72 8.32257e-72 8.1617e-72 8.14858e-72 8.2471e-72 8.40746e-72 8.58064e-72 8.73043e-72 8.83898e-72 8.90481e-72 8.93553e-72 8.93966e-72 8.92131e-72 8.87939e-72 8.81008e-72 8.71049e-72 8.58148e-72 8.42943e-72 8.26721e-72 8.11439e-72 7.99593e-72 7.9384e-72 7.96365e-72 8.08158e-72 8.28489e-72 8.5489e-72 8.83759e-72 9.11486e-72 9.35689e-72 9.5606e-72 9.74455e-72 9.9415e-72 1.0186e-71 1.05019e-71 1.08947e-71 1.13488e-71 1.18306e-71 1.22919e-71 1.2675e-71 1.29179e-71 1.29601e-71 1.27509e-71 1.22584e-71 1.14768e-71 1.04313e-71 9.17701e-72 7.79338e-72 6.37267e-72 5.00624e-72 3.77095e-72 2.71918e-72 1.8747e-72 1.23465e-72 7.76307e-73 4.65913e-73 2.66918e-73 1.46008e-73 7.62975e-74 3.81116e-74 1.82116e-74 8.33197e-75 3.65304e-75 1.53632e-75 6.20373e-76 2.40767e-76 8.98961e-77 3.23228e-77 1.12026e-77 3.74607e-78 1.2097e-78 3.77584e-79 1.14013e-79 3.3332e-80 9.44247e-81 2.59395e-81 6.91536e-82 1.79043e-82 4.50492e-83 1.10229e-83 2.62458e-84 6.08482e-85 1.37441e-85 3.02628e-86 6.49934e-87 1.36215e-87 2.78735e-88 5.5717e-89 1.08847e-89 2.07907e-90 3.88458e-91 7.10262e-92 1.27137e-92 2.22881e-93 3.82815e-94 6.44432e-95 1.06363e-95 1.72179e-96 2.73456e-97 4.26235e-98 6.51946e-99 9.59162e-100 0 
0 2.05234e-142 2.52376e-141 3.05146e-140 3.65055e-139 4.32091e-138 5.05959e-137 5.86046e-136 6.71398e-135 7.60696e-134 8.52273e-133 9.44133e-132 1.03401e-130 1.11944e-129 1.19787e-128 1.26678e-127 1.32378e-126 1.36679e-125 1.39411e-124 1.40459e-123 1.39764e-122 1.37333e-121 1.33238e-120 1.2761e-119 1.20639e-118 1.12554e-117 1.0362e-116 9.4115e-116 8.43216e-115 7.45089e-114 6.4922e-113 5.57713e-112 4.72266e-111 3.94127e-110 3.24097e-109 2.62553e-108 2.09496e-107 1.6461e-106 1.2734e-105 9.69636e-105 7.26583e-104 5.35665e-103 3.88444e-102 2.77e-101 1.94195e-100 1.3381e-99 9.05961e-99 6.02533e-98 3.93528e-97 2.52327e-96 1.58786e-95 9.80342e-95 5.93635e-94 3.52443e-93 2.05083e-92 1.16919e-91 6.52816e-91 3.5684e-90 1.90879e-89 9.98757e-89 5.10963e-88 2.55476e-87 1.24777e-86 5.95023e-86 2.76901e-85 1.25683e-84 5.561e-84 2.3972e-83 1.00617e-82 4.10952e-82 1.63222e-81 6.30009e-81 2.36152e-80 8.59009e-80 3.02999e-79 1.03557e-78 3.4266e-78 1.09679e-77 3.39298e-77 1.01355e-76 2.92084e-76 8.11248e-76 2.16947e-75 5.58046e-75 1.3793e-74 3.27242e-74 7.44483e-74 1.62245e-73 3.38371e-73 6.74696e-73 1.28513e-72 2.33659e-72 4.05285e-72 6.70375e-72 1.05733e-71 1.59055e-71 2.2837e-71 3.13352e-71 4.11687e-71 5.19289e-71 6.31064e-71 7.41994e-71 8.48154e-71 9.47249e-71 1.0385e-70 1.12201e-70 1.19795e-70 1.26605e-70 1.32551e-70 1.37533e-70 1.4147e-70 1.44317e-70 1.46068e-70 1.46741e-70 1.46378e-70 1.45065e-70 1.42957e-70 1.40293e-70 1.37372e-70 1.34492e-70 1.31864e-70 1.29547e-70 1.27423e-70 1.25253e-70 1.2278e-70 1.19852e-70 1.16507e-70 1.12975e-70 1.09606e-70 1.06737e-70 1.04573e-70 1.03114e-70 1.02173e-70 1.01464e-70 1.00734e-70 9.98885e-71 9.90495e-71 9.85301e-71 9.8737e-71 1.00034e-70 1.02617e-70 1.06444e-70 1.11226e-70 1.16482e-70 1.2161e-70 1.2598e-70 1.29013e-70 1.30254e-70 1.29444e-70 1.2657e-70 1.21897e-70 1.15953e-70 1.09469e-70 1.03257e-70 9.80707e-71 9.44523e-71 9.26289e-71 9.248e-71 9.35965e-71 9.54144e-71 9.73783e-71 9.90777e-71 1.0031e-70 1.01058e-70 1.01409e-70 1.01458e-70 1.01253e-70 1.0078e-70 9.99968e-71 9.88699e-71 9.74085e-71 9.56845e-71 9.38436e-71 9.21076e-71 9.07597e-71 9.01014e-71 9.03806e-71 9.171e-71 9.40076e-71 9.6994e-71 1.00261e-70 1.03401e-70 1.06143e-70 1.08452e-70 1.10538e-70 1.12771e-70 1.15543e-70 1.19125e-70 1.23576e-70 1.28722e-70 1.34179e-70 1.39404e-70 1.43743e-70 1.46492e-70 1.46966e-70 1.44593e-70 1.39008e-70 1.30147e-70 1.18293e-70 1.04073e-70 8.83863e-71 7.22777e-71 5.67834e-71 4.27751e-71 3.08471e-71 2.12689e-71 1.40087e-71 8.80918e-72 5.28758e-72 3.0296e-72 1.65746e-72 8.66246e-73 4.3277e-73 2.06833e-73 9.46449e-74 4.15036e-74 1.74582e-74 7.05114e-75 2.73714e-75 1.0222e-75 3.67627e-76 1.27444e-76 4.2627e-77 1.37689e-77 4.29881e-78 1.29839e-78 3.79694e-79 1.07592e-79 2.95653e-80 7.8843e-81 2.0419e-81 5.13925e-82 1.25789e-82 2.99603e-83 6.94822e-84 1.56994e-84 3.45798e-85 7.42899e-86 1.55751e-86 3.18824e-87 6.37528e-88 1.24589e-88 2.38063e-89 4.44962e-90 8.13875e-91 1.45738e-91 2.55586e-92 4.39153e-93 7.39553e-94 1.2211e-94 1.97746e-95 3.14184e-96 4.8991e-97 7.49637e-98 1.10331e-98 0 
0 2.38131e-141 2.92693e-140 3.53726e-139 4.22974e-138 5.00412e-137 5.85685e-136 6.78076e-135 7.76469e-134 8.79335e-133 9.84738e-132 1.09037e-130 1.19362e-129 1.29164e-128 1.38151e-127 1.46031e-126 1.52533e-125 1.57417e-124 1.60492e-123 1.61625e-122 1.60753e-121 1.57887e-120 1.5311e-119 1.46578e-118 1.38508e-117 1.29169e-116 1.18864e-115 1.07914e-114 9.66422e-114 8.53587e-113 7.43436e-112 6.38375e-111 5.40338e-110 4.50743e-109 3.70497e-108 3.00016e-107 2.39287e-106 1.87939e-105 1.45327e-104 1.10614e-103 8.28533e-103 6.10578e-102 4.42587e-101 3.15483e-100 2.21086e-99 1.52278e-98 1.03059e-97 6.85156e-97 4.47318e-96 2.86706e-95 1.80351e-94 1.11306e-93 6.7375e-93 3.99859e-92 2.32589e-91 1.32552e-90 7.39834e-90 4.04261e-89 2.16169e-88 1.13069e-87 5.78262e-87 2.89027e-86 1.41117e-85 6.72719e-85 3.12956e-84 1.42003e-83 6.28111e-83 2.70678e-82 1.13577e-81 4.63746e-81 1.84137e-80 7.10535e-80 2.66262e-79 9.68274e-79 3.41449e-78 1.16669e-77 3.85947e-77 1.23505e-76 3.81979e-76 1.14079e-75 3.2868e-75 9.12701e-75 2.44029e-74 6.2759e-74 1.55091e-73 3.67895e-73 8.36836e-73 1.82345e-72 3.80237e-72 7.58081e-72 1.44379e-71 2.6248e-71 4.55236e-71 7.5294e-71 1.18748e-70 1.78624e-70 2.56457e-70 3.51881e-70 4.62298e-70 5.8312e-70 7.08625e-70 8.33177e-70 9.5236e-70 1.06359e-69 1.16599e-69 1.25967e-69 1.34482e-69 1.42115e-69 1.48778e-69 1.54359e-69 1.58768e-69 1.61955e-69 1.63915e-69 1.64667e-69 1.64259e-69 1.62788e-69 1.60426e-69 1.57443e-69 1.54172e-69 1.50947e-69 1.48005e-69 1.4541e-69 1.4303e-69 1.40598e-69 1.37825e-69 1.34543e-69 1.30792e-69 1.26833e-69 1.23055e-69 1.19839e-69 1.17412e-69 1.15777e-69 1.14722e-69 1.13928e-69 1.13111e-69 1.12168e-69 1.11232e-69 1.10655e-69 1.10892e-69 1.12349e-69 1.15247e-69 1.19537e-69 1.24897e-69 1.30786e-69 1.36531e-69 1.41425e-69 1.44821e-69 1.46208e-69 1.45296e-69 1.42072e-69 1.36832e-69 1.30168e-69 1.22898e-69 1.15934e-69 1.10119e-69 1.06062e-69 1.04017e-69 1.0385e-69 1.05102e-69 1.07141e-69 1.09345e-69 1.11252e-69 1.12637e-69 1.13478e-69 1.13874e-69 1.13932e-69 1.13704e-69 1.13177e-69 1.12302e-69 1.1104e-69 1.09402e-69 1.07468e-69 1.05401e-69 1.0345e-69 1.01932e-69 1.01187e-69 1.01492e-69 1.02974e-69 1.05543e-69 1.08886e-69 1.12545e-69 1.16062e-69 1.19135e-69 1.21725e-69 1.24065e-69 1.26571e-69 1.29681e-69 1.33698e-69 1.38688e-69 1.44457e-69 1.50575e-69 1.5643e-69 1.61291e-69 1.64369e-69 1.64897e-69 1.62232e-69 1.55966e-69 1.46026e-69 1.3273e-69 1.16779e-69 9.91811e-70 8.11096e-70 6.3726e-70 4.80084e-70 3.46237e-70 2.38749e-70 1.57267e-70 9.89051e-71 5.93731e-71 3.40229e-71 1.8616e-71 9.73079e-72 4.86217e-72 2.32415e-72 1.06369e-72 4.66535e-73 1.96282e-73 7.92919e-74 3.07863e-74 1.14999e-74 4.13677e-75 1.43442e-75 4.79896e-76 1.55049e-76 4.84206e-77 1.46286e-77 4.27906e-78 1.21288e-78 3.33382e-79 8.89302e-80 2.30383e-80 5.80024e-81 1.42012e-81 3.38348e-82 7.84927e-83 1.77411e-83 3.90897e-84 8.40067e-85 1.76183e-85 3.60771e-86 7.21657e-87 1.4108e-87 2.69669e-88 5.04218e-89 9.22594e-90 1.65266e-90 2.89941e-91 4.9837e-92 8.39595e-93 1.38681e-93 2.24668e-94 3.57097e-95 5.57042e-96 8.52693e-97 1.25546e-97 0 
0 2.73278e-140 3.35737e-139 4.05555e-138 4.84723e-137 5.73197e-136 6.70561e-135 7.7598e-134 8.88167e-133 1.00536e-131 1.12535e-130 1.2455e-129 1.36281e-128 1.47405e-127 1.57589e-126 1.66502e-125 1.73837e-124 1.79322e-123 1.82742e-122 1.8395e-121 1.82876e-120 1.79534e-119 1.74025e-118 1.66527e-117 1.5729e-116 1.4662e-115 1.34863e-114 1.22386e-113 1.09555e-112 9.67222e-112 8.42044e-111 7.22738e-110 6.11484e-109 5.09876e-108 4.18925e-107 3.39089e-106 2.70338e-105 2.12239e-104 1.6405e-103 1.24813e-102 9.34507e-102 6.88394e-101 4.98793e-100 3.55405e-99 2.48963e-98 1.71412e-97 1.15963e-96 7.70644e-96 5.02936e-95 3.22231e-94 2.02621e-93 1.25004e-92 7.5638e-92 4.48732e-91 2.60922e-90 1.48645e-89 8.29362e-89 4.53022e-88 2.42158e-87 1.26619e-86 6.47341e-86 3.23445e-85 1.57869e-84 7.52335e-84 3.49882e-83 1.58708e-82 7.01784e-82 3.02335e-81 1.26823e-80 5.17677e-80 2.05492e-79 7.92716e-79 2.96977e-78 1.07968e-77 3.80638e-77 1.30026e-76 4.30029e-76 1.37578e-75 4.25409e-75 1.27021e-74 3.65893e-74 1.01583e-73 2.7155e-73 6.98239e-73 1.7252e-72 4.09171e-72 9.30582e-72 2.02743e-71 4.22717e-71 8.42672e-71 1.60472e-70 2.91709e-70 5.05887e-70 8.36656e-70 1.31943e-69 1.98463e-69 2.8493e-69 3.90938e-69 5.13602e-69 6.47823e-69 7.87245e-69 9.256e-69 1.05798e-68 1.1815e-68 1.29519e-68 1.39914e-68 1.4936e-68 1.57824e-68 1.6521e-68 1.71396e-68 1.7628e-68 1.79811e-68 1.8198e-68 1.82812e-68 1.82359e-68 1.80727e-68 1.78111e-68 1.74805e-68 1.71182e-68 1.6761e-68 1.64351e-68 1.61475e-68 1.58837e-68 1.5614e-68 1.53065e-68 1.49424e-68 1.45265e-68 1.40873e-68 1.36683e-68 1.33116e-68 1.30424e-68 1.2861e-68 1.27441e-68 1.2656e-68 1.25658e-68 1.24615e-68 1.23583e-68 1.22948e-68 1.23216e-68 1.24837e-68 1.28053e-68 1.32811e-68 1.38754e-68 1.45282e-68 1.51649e-68 1.57072e-68 1.60833e-68 1.62367e-68 1.61352e-68 1.57773e-68 1.51959e-68 1.44568e-68 1.36504e-68 1.2878e-68 1.22331e-68 1.1783e-68 1.15562e-68 1.15376e-68 1.16765e-68 1.19028e-68 1.21474e-68 1.23593e-68 1.25131e-68 1.26068e-68 1.2651e-68 1.26577e-68 1.26327e-68 1.25746e-68 1.24777e-68 1.2338e-68 1.21564e-68 1.19417e-68 1.17121e-68 1.14951e-68 1.13261e-68 1.12426e-68 1.12755e-68 1.14391e-68 1.17233e-68 1.20933e-68 1.24987e-68 1.28885e-68 1.32293e-68 1.35166e-68 1.37764e-68 1.40546e-68 1.43997e-68 1.48454e-68 1.5399e-68 1.60388e-68 1.67171e-68 1.73663e-68 1.79051e-68 1.82461e-68 1.83042e-68 1.80081e-68 1.73126e-68 1.62095e-68 1.47339e-68 1.29638e-68 1.10107e-68 9.00499e-69 7.07546e-69 5.33071e-69 3.84481e-69 2.65143e-69 1.74668e-69 1.0986e-69 6.59568e-70 3.78001e-70 2.06855e-70 1.0814e-70 5.40423e-71 2.58367e-71 1.18267e-71 5.18809e-72 2.18316e-72 8.82101e-73 3.42559e-73 1.27987e-73 4.60499e-74 1.59714e-74 5.34463e-75 1.72722e-75 5.39532e-76 1.63043e-76 4.7705e-77 1.35254e-77 3.71875e-78 9.92269e-79 2.57133e-79 6.47564e-80 1.58596e-80 3.77978e-81 8.77141e-82 1.98317e-82 4.37102e-83 9.39675e-84 1.97139e-84 4.03821e-85 8.08047e-86 1.58024e-86 3.02163e-87 5.65175e-88 1.0345e-88 1.85381e-89 3.25349e-90 5.5944e-91 9.42831e-92 1.55792e-92 2.52485e-93 4.01465e-94 6.26495e-95 9.59384e-96 1.41308e-96 0 
0 3.10148e-139 3.80858e-138 4.59843e-137 5.49351e-136 6.49319e-135 7.59259e-134 8.78214e-133 1.00472e-131 1.13677e-130 1.27186e-129 1.407e-128 1.53881e-127 1.66366e-126 1.77779e-125 1.87749e-124 1.95931e-123 2.02022e-122 2.05782e-121 2.0705e-120 2.05749e-119 2.019e-118 1.95618e-117 1.87107e-116 1.7665e-115 1.64595e-114 1.51331e-113 1.3727e-112 1.22826e-111 1.08392e-110 9.43232e-110 8.09244e-109 6.84383e-108 5.70421e-107 4.68473e-106 3.79036e-105 3.0206e-104 2.37046e-103 1.83149e-102 1.39287e-101 1.04245e-100 7.67602e-100 5.55962e-99 3.95982e-98 2.77278e-97 1.90832e-96 1.29051e-95 8.57288e-95 5.59267e-94 3.58187e-93 2.25145e-92 1.38848e-91 8.39839e-91 4.98063e-90 2.89502e-89 1.64868e-88 9.19551e-88 5.0211e-87 2.68305e-86 1.40243e-85 7.16752e-85 3.58007e-84 1.74682e-83 8.32188e-83 3.86896e-82 1.75443e-81 7.75547e-81 3.34013e-80 1.4007e-79 5.71585e-79 2.26828e-78 8.7478e-78 3.27633e-77 1.19082e-76 4.19713e-76 1.43339e-75 4.73945e-75 1.51593e-74 4.68641e-74 1.399e-73 4.02906e-73 1.11837e-72 2.98905e-72 7.68441e-72 1.89833e-71 4.50162e-71 1.02366e-70 2.22991e-70 4.64874e-70 9.26605e-70 1.76438e-69 3.20702e-69 5.56123e-69 9.19674e-69 1.45027e-68 2.18134e-68 3.13161e-68 4.29662e-68 5.64465e-68 7.1197e-68 8.65187e-68 1.01722e-67 1.16268e-67 1.29837e-67 1.42322e-67 1.53735e-67 1.64101e-67 1.73385e-67 1.81484e-67 1.88265e-67 1.93618e-67 1.97486e-67 1.99862e-67 2.00772e-67 2.00273e-67 1.98484e-67 1.95616e-67 1.91994e-67 1.88023e-67 1.84109e-67 1.80538e-67 1.77386e-67 1.74494e-67 1.71535e-67 1.68161e-67 1.64166e-67 1.59603e-67 1.54785e-67 1.50188e-67 1.46274e-67 1.43321e-67 1.4133e-67 1.40047e-67 1.39083e-67 1.38096e-67 1.36956e-67 1.35829e-67 1.3514e-67 1.3544e-67 1.37222e-67 1.40753e-67 1.45973e-67 1.52491e-67 1.59649e-67 1.66629e-67 1.72574e-67 1.76694e-67 1.78372e-67 1.77254e-67 1.73325e-67 1.66944e-67 1.58834e-67 1.49986e-67 1.41512e-67 1.34436e-67 1.29498e-67 1.27009e-67 1.26805e-67 1.28329e-67 1.30813e-67 1.33499e-67 1.35827e-67 1.37518e-67 1.38549e-67 1.39037e-67 1.39114e-67 1.38844e-67 1.38209e-67 1.37149e-67 1.35618e-67 1.33626e-67 1.31269e-67 1.28746e-67 1.26359e-67 1.24496e-67 1.23571e-67 1.23923e-67 1.25708e-67 1.28817e-67 1.3287e-67 1.37312e-67 1.41587e-67 1.45325e-67 1.48478e-67 1.5133e-67 1.54385e-67 1.58174e-67 1.63066e-67 1.6914e-67 1.76159e-67 1.836e-67 1.90719e-67 1.96627e-67 2.00364e-67 2.00996e-67 1.97742e-67 1.90105e-67 1.77995e-67 1.61796e-67 1.42363e-67 1.20921e-67 9.88995e-68 7.77128e-68 5.85534e-68 4.22352e-68 2.91283e-68 1.91906e-68 1.20714e-68 7.2481e-69 4.15439e-69 2.27371e-69 1.18882e-69 5.94189e-70 2.84115e-70 1.30074e-70 5.70704e-71 2.40197e-71 9.70697e-72 3.7704e-72 1.40899e-72 5.07067e-73 1.75905e-73 5.88779e-74 1.90321e-74 5.94653e-75 1.79746e-75 5.2606e-76 1.49189e-76 4.10303e-77 1.09511e-77 2.83865e-78 7.15096e-79 1.75188e-79 4.17648e-80 9.69501e-81 2.19268e-81 4.83435e-82 1.03962e-82 2.18179e-83 4.4707e-84 8.94894e-85 1.75068e-85 3.3487e-86 6.26574e-87 1.1473e-87 2.05667e-88 3.61085e-89 6.21116e-90 1.04717e-90 1.73097e-91 2.80636e-92 4.46399e-93 6.96884e-94 1.06759e-94 1.57304e-95 0 