# vtk DataFile Version 3.0
Gray-Scott Simulation Output
ASCII
DATASET STRUCTURED_POINTS
DIMENSIONS 256 256 1
SPACING 1.0 1.0 1.0
ORIGIN 0 0 0
POINT_DATA 65536
SCALARS u double
LOOKUP_TABLE default
0 0 0 0 0 0 0 0 0 0 0 0 0 0 0 0 0 0 0 0 0 0 0 0 0 0 0 0 0 0 0 0 0 0 0 0 0 0 0 0 0 0 0 0 0 0 0 0 0 0 0 0 0 0 0 0 0 0 0 0 0 0 0 0 0 0 0 0 0 0 0 0 0 0 0 0 0 0 0 0 0 0 0 0 0 0 0 0 0 0 0 0 0 0 0 0 0 0 0 0 0 0 0 0 0 0 0 0 0 0 0 0 0 0 0 0 0 0 0 0 0 0 0 0 0 0 0 0 0 0 0 0 0 0 0 0 0 0 0 0 0 0 0 0 0 0 0 0 0 0 0 0 0 0 0 0 0 0 0 0 0 0 0 0 0 0 0 0 0 0 0 0 0 0 0 0 0 0 0 0 0 0 0 0 0 0 0 0 0 0 0 0 0 0 0 0 0 0 0 0 0 0 0 0 0 0 0 0 0 0 0 0 0 0 0 0 0 0 0 0 0 0 0 0 0 0 0 0 0 0 0 0 0 0 0 0 0 0 0 0 0 0 0 0 0 0 0 0 0 0 0 0 0 0 0 0 
0 1.37297e-78 5.04616e-78 1.70652e-77 5.68863e-77 1.8795e-76 6.15738e-76 2.00013e-75 6.4418e-75 2.05691e-74 6.51113e-74 2.04317e-73 6.35522e-73 1.95934e-72 5.98703e-72 1.81305e-71 5.44096e-71 1.618e-70 4.76752e-70 1.39183e-69 4.02556e-69 1.15342e-68 3.27368e-68 9.20329e-68 2.56256e-67 7.06643e-67 1.92969e-66 5.21797e-66 1.39705e-65 3.70325e-65 9.7181e-65 2.52449e-64 6.49117e-64 1.65195e-63 4.1606e-63 1.03697e-62 2.55736e-62 6.24014e-62 1.50639e-61 3.59733e-61 8.49745e-61 1.98528e-60 4.58712e-60 1.04811e-59 2.36797e-59 5.28949e-59 1.16809e-58 2.5499e-58 5.50192e-58 1.17329e-57 2.47262e-57 5.14904e-57 1.05942e-56 2.15351e-56 4.32425e-56 8.57674e-56 1.68011e-55 3.25021e-55 6.20874e-55 1.17103e-54 2.18055e-54 4.00823e-54 7.27253e-54 1.30234e-53 2.30157e-53 4.01372e-53 6.90642e-53 1.17247e-52 1.96362e-52 3.24401e-52 5.28615e-52 8.49566e-52 1.34655e-51 2.10468e-51 3.24385e-51 4.92971e-51 7.38663e-51 1.09123e-50 1.58934e-50 2.28211e-50 3.23051e-50 4.50835e-50 6.20269e-50 8.41339e-50 1.12514e-49 1.48358e-49 1.92893e-49 2.47324e-49 3.1276e-49 3.90133e-49 4.80114e-49 5.83029e-49 6.98793e-49 8.26858e-49 9.66192e-49 1.11528e-48 1.27219e-48 1.43462e-48 1.6e-48 1.76565e-48 1.92888e-48 2.0871e-48 2.23797e-48 2.37947e-48 2.50999e-48 2.62832e-48 2.73367e-48 2.82567e-48 2.9043e-48 2.96986e-48 3.02288e-48 3.06407e-48 3.09429e-48 3.11446e-48 3.12554e-48 3.12851e-48 3.12435e-48 3.11399e-48 3.09835e-48 3.07828e-48 3.05464e-48 3.02821e-48 2.99976e-48 2.97001e-48 2.93967e-48 2.90941e-48 2.87988e-48 2.8517e-48 2.82545e-48 2.80167e-48 2.78086e-48 2.76343e-48 2.74973e-48 2.73999e-48 2.73431e-48 2.73268e-48 2.7349e-48 2.7406e-48 2.74928e-48 2.76024e-48 2.77267e-48 2.78566e-48 2.79823e-48 2.80944e-48 2.81839e-48 2.82433e-48 2.82671e-48 2.82519e-48 2.81973e-48 2.81051e-48 2.79797e-48 2.78276e-48 2.76565e-48 2.7475e-48 2.72914e-48 2.71135e-48 2.69475e-48 2.67979e-48 2.66672e-48 2.65561e-48 2.64634e-48 2.63864e-48 2.63216e-48 2.62654e-48 2.62141e-48 2.61647e-48 2.61156e-48 2.60661e-48 2.60173e-48 2.59715e-48 2.59323e-48 2.59043e-48 2.58926e-48 2.59028e-48 2.59401e-48 2.60091e-48 2.61138e-48 2.62568e-48 2.64393e-48 2.6661e-48 2.69199e-48 2.72121e-48 2.75315e-48 2.78702e-48 2.82177e-48 2.85613e-48 2.88861e-48 2.91746e-48 2.94073e-48 2.95631e-48 2.96202e-48 2.95563e-48 2.93506e-48 2.89844e-48 2.84428e-48 2.7716e-48 2.68001e-48 2.56982e-48 2.44207e-48 2.29852e-48 2.14159e-48 1.97426e-48 1.79993e-48 1.62221e-48 1.44475e-48 1.27106e-48 1.10432e-48 9.47238e-49 8.01967e-49 6.70029e-49 5.52319e-49 4.49135e-49 3.60241e-49 2.84963e-49 2.22291e-49 1.70985e-49 1.2968e-49 9.69707e-50 7.14909e-50 5.19631e-50 3.72365e-50 2.63071e-50 1.83238e-50 1.25836e-50 8.52024e-51 5.68822e-51 3.74453e-51 2.43074e-51 1.55604e-51 9.82372e-52 6.11689e-52 3.75679e-52 2.27597e-52 1.36024e-52 8.02041e-53 4.66604e-53 2.6786e-53 1.51745e-53 8.48412e-54 4.68192e-54 2.55039e-54 1.3715e-54 7.28172e-55 3.81734e-55 1.97614e-55 1.0103e-55 5.10145e-56 2.54445e-56 1.25369e-56 6.10244e-57 2.9343e-57 1.39269e-57 6.49736e-58 2.9159e-58 1.11181e-58 0 
0 5.03998e-78 1.85266e-77 6.26652e-77 2.08933e-76 6.90445e-76 2.26241e-75 7.35063e-75 2.36792e-74 7.56258e-74 2.39447e-73 7.51549e-73 2.33823e-72 7.21058e-72 2.20384e-71 6.67556e-71 2.00385e-70 5.96052e-70 1.75677e-69 5.13011e-69 1.48419e-68 4.2538e-68 1.20768e-67 3.39617e-67 9.45918e-67 2.60924e-66 7.12752e-66 1.92794e-65 5.16352e-65 1.36919e-64 3.59426e-64 9.34012e-64 2.40246e-63 6.11624e-63 1.541e-62 3.84215e-62 9.479e-62 2.31382e-61 5.5878e-61 1.33492e-60 3.15453e-60 7.37297e-60 1.70427e-59 3.89566e-59 8.80507e-59 1.96767e-58 4.34709e-58 9.49362e-58 2.04932e-57 4.37209e-57 9.21784e-57 1.92038e-56 3.95295e-56 8.03874e-56 1.61489e-55 3.2044e-55 6.27989e-55 1.21539e-54 2.32273e-54 4.38281e-54 8.16464e-54 1.50144e-53 2.72536e-53 4.88249e-53 8.63216e-53 1.50597e-52 2.59234e-52 4.40258e-52 7.37605e-52 1.219e-51 1.98706e-51 3.19457e-51 5.06495e-51 7.91895e-51 1.22085e-50 1.85582e-50 2.7814e-50 4.10986e-50 5.987e-50 8.59807e-50 1.21729e-49 1.69898e-49 2.33768e-49 3.17099e-49 4.24069e-49 5.59154e-49 7.26965e-49 9.32017e-49 1.17845e-48 1.46974e-48 1.80836e-48 2.19546e-48 2.63064e-48 3.11176e-48 3.63483e-48 4.19408e-48 4.78213e-48 5.39024e-48 6.00875e-48 6.62753e-48 7.23645e-48 7.82587e-48 8.38707e-48 8.91259e-48 9.39645e-48 9.8343e-48 1.02234e-47 1.05624e-47 1.08515e-47 1.10919e-47 1.12857e-47 1.14356e-47 1.1545e-47 1.16173e-47 1.16562e-47 1.16653e-47 1.16481e-47 1.16082e-47 1.1549e-47 1.14736e-47 1.13851e-47 1.12864e-47 1.11804e-47 1.10697e-47 1.09568e-47 1.08443e-47 1.07346e-47 1.06299e-47 1.05324e-47 1.04441e-47 1.03668e-47 1.03022e-47 1.02513e-47 1.02152e-47 1.01942e-47 1.01883e-47 1.01966e-47 1.02179e-47 1.02503e-47 1.02912e-47 1.03376e-47 1.0386e-47 1.04329e-47 1.04746e-47 1.05081e-47 1.05303e-47 1.05392e-47 1.05337e-47 1.05135e-47 1.04793e-47 1.04328e-47 1.03763e-47 1.03128e-47 1.02454e-47 1.01773e-47 1.01113e-47 1.00497e-47 9.99425e-48 9.94585e-48 9.90472e-48 9.87039e-48 9.84192e-48 9.81798e-48 9.79718e-48 9.77816e-48 9.75985e-48 9.74158e-48 9.72315e-48 9.70494e-48 9.68783e-48 9.67317e-48 9.66266e-48 9.65824e-48 9.66195e-48 9.67574e-48 9.70139e-48 9.74033e-48 9.79356e-48 9.86157e-48 9.94426e-48 1.00409e-47 1.015e-47 1.02695e-47 1.03963e-47 1.05266e-47 1.06558e-47 1.07782e-47 1.08874e-47 1.09762e-47 1.10367e-47 1.10606e-47 1.10397e-47 1.09661e-47 1.08327e-47 1.0634e-47 1.03659e-47 1.00271e-47 9.61843e-48 9.14375e-48 8.60952e-48 8.02471e-48 7.40044e-48 6.74934e-48 6.08498e-48 5.42106e-48 4.77077e-48 4.14609e-48 3.55725e-48 3.01239e-48 2.51731e-48 2.07544e-48 1.68796e-48 1.35404e-48 1.07119e-48 8.35661e-49 6.42811e-49 4.8753e-49 3.64555e-49 2.68755e-49 1.95331e-49 1.3996e-49 9.88688e-50 6.88559e-50 4.72781e-50 3.20058e-50 2.13632e-50 1.40602e-50 9.12492e-51 5.83986e-51 3.68587e-51 2.29441e-51 1.40873e-51 8.53183e-52 5.09742e-52 3.0046e-52 1.74739e-52 1.00276e-52 5.67869e-53 3.17381e-53 1.7508e-53 9.53357e-54 5.12483e-54 2.71987e-54 1.4253e-54 7.37555e-55 3.76924e-55 1.90251e-55 9.4854e-56 4.67174e-56 2.27312e-56 1.09258e-56 5.18362e-57 2.41742e-57 1.08452e-57 4.13414e-58 0 
0 1.702e-77 6.25758e-77 2.11705e-76 7.06012e-76 2.33365e-75 7.64861e-75 2.48567e-74 8.00932e-74 2.55866e-73 8.10339e-73 2.54409e-72 7.91741e-72 2.44225e-71 7.46667e-71 2.26237e-70 6.7932e-70 2.02129e-69 5.95932e-69 1.7408e-68 5.038e-68 1.44441e-67 4.10221e-67 1.154e-66 3.21535e-66 8.87253e-66 2.42456e-65 6.56076e-65 1.75783e-64 4.66299e-64 1.22458e-63 3.18351e-63 8.192e-63 2.08642e-62 5.25904e-62 1.3118e-61 3.23779e-61 7.90699e-61 1.91038e-60 4.56598e-60 1.07949e-59 2.52424e-59 5.8376e-59 1.33502e-58 3.01893e-58 6.74974e-58 1.49194e-57 3.25988e-57 7.04042e-57 1.5028e-56 3.17003e-56 6.60763e-56 1.36083e-55 2.76883e-55 5.56516e-55 1.10486e-54 2.16639e-54 4.19494e-54 8.02104e-54 1.51428e-53 2.82236e-53 5.1928e-53 9.43047e-53 1.6903e-52 2.98986e-52 5.2186e-52 8.98733e-52 1.52701e-51 2.55946e-51 4.23167e-51 6.90076e-51 1.10986e-50 1.76032e-50 2.7532e-50 4.24596e-50 6.45628e-50 9.67903e-50 1.43056e-49 2.08442e-49 2.99407e-49 4.23961e-49 5.91801e-49 8.14354e-49 1.10471e-48 1.4774e-48 1.94797e-48 2.53242e-48 3.24638e-48 4.10415e-48 5.11761e-48 6.29514e-48 7.64049e-48 9.15195e-48 1.08217e-47 1.26354e-47 1.45728e-47 1.66077e-47 1.87096e-47 2.08446e-47 2.29775e-47 2.50731e-47 2.70982e-47 2.90228e-47 3.08215e-47 3.24742e-47 3.39663e-47 3.5289e-47 3.64385e-47 3.74159e-47 3.82259e-47 3.88763e-47 3.93772e-47 3.97399e-47 3.99767e-47 4.01002e-47 4.0123e-47 4.00573e-47 3.9915e-47 3.97076e-47 3.94458e-47 3.91399e-47 3.88e-47 3.84354e-47 3.80552e-47 3.76681e-47 3.72826e-47 3.69066e-47 3.65481e-47 3.62143e-47 3.59121e-47 3.56477e-47 3.54265e-47 3.52527e-47 3.51294e-47 3.50579e-47 3.50378e-47 3.50669e-47 3.51404e-47 3.52519e-47 3.53925e-47 3.55519e-47 3.57184e-47 3.58797e-47 3.60235e-47 3.61386e-47 3.62153e-47 3.62465e-47 3.6228e-47 3.61591e-47 3.60423e-47 3.58832e-47 3.569e-47 3.54727e-47 3.52421e-47 3.5009e-47 3.47832e-47 3.45727e-47 3.43833e-47 3.42181e-47 3.40778e-47 3.39608e-47 3.38638e-47 3.37822e-47 3.37113e-47 3.36464e-47 3.35838e-47 3.35212e-47 3.34579e-47 3.33952e-47 3.33363e-47 3.32856e-47 3.32492e-47 3.32337e-47 3.32461e-47 3.32931e-47 3.3381e-47 3.35146e-47 3.36974e-47 3.39312e-47 3.42157e-47 3.45484e-47 3.49246e-47 3.53369e-47 3.57752e-47 3.62267e-47 3.66752e-47 3.71018e-47 3.74844e-47 3.77981e-47 3.80159e-47 3.81093e-47 3.80496e-47 3.78093e-47 3.73639e-47 3.66932e-47 3.57836e-47 3.46291e-47 3.32328e-47 3.16071e-47 2.97739e-47 2.77639e-47 2.56152e-47 2.33714e-47 2.10793e-47 1.87866e-47 1.65389e-47 1.43781e-47 1.23398e-47 1.04526e-47 8.73687e-48 7.20477e-48 5.86069e-48 4.70198e-48 3.72019e-48 2.90243e-48 2.23272e-48 1.69339e-48 1.26623e-48 9.33433e-49 6.78365e-49 4.86016e-49 3.43278e-49 2.39032e-49 1.64094e-49 1.11063e-49 7.41145e-50 4.87659e-50 3.16396e-50 2.02429e-50 1.27724e-50 7.94798e-51 4.87821e-51 2.95335e-51 1.76384e-51 1.03926e-51 6.0416e-52 3.46561e-52 1.96176e-52 1.09595e-52 6.04303e-53 3.28913e-53 1.76729e-53 9.37519e-54 4.91064e-54 2.53995e-54 1.29743e-54 6.54567e-55 3.26197e-55 1.60583e-55 7.80983e-56 3.75206e-56 1.77931e-56 8.29425e-57 3.71953e-57 1.41744e-57 0 
0 5.6652e-77 2.08328e-76 7.04972e-76 2.35156e-75 7.77476e-75 2.54884e-74 8.28547e-74 2.67045e-73 8.53334e-73 2.7033e-72 8.48954e-72 2.64278e-71 8.15451e-71 2.49383e-70 7.55858e-70 2.27033e-69 6.75747e-69 1.99296e-68 5.8237e-68 1.686e-67 4.83554e-67 1.37382e-66 3.86615e-66 1.07761e-65 2.97475e-65 8.13217e-65 2.20141e-64 5.90063e-64 1.56591e-63 4.11407e-63 1.06999e-62 2.75455e-62 7.01869e-62 1.76993e-61 4.41689e-61 1.09068e-60 2.66481e-60 6.44143e-60 1.54031e-59 3.64338e-59 8.52381e-59 1.97222e-58 4.51264e-58 1.02098e-57 2.28391e-57 5.05091e-57 1.10421e-56 2.38605e-56 5.09581e-56 1.0755e-55 2.24299e-55 4.62193e-55 9.40918e-55 1.89222e-54 3.75868e-54 7.374e-54 1.42866e-53 2.73319e-53 5.16275e-53 9.6276e-53 1.7723e-52 3.2203e-52 5.775e-52 1.02202e-51 1.78476e-51 3.07516e-51 5.22741e-51 8.76584e-51 1.44995e-50 2.36551e-50 3.80605e-50 6.03906e-50 9.4488e-50 1.4577e-49 2.21725e-49 3.32501e-49 4.91568e-49 7.16421e-49 1.02928e-48 1.45772e-48 2.03509e-48 2.80069e-48 3.7995e-48 5.0814e-48 6.69976e-48 8.70932e-48 1.11635e-47 1.41109e-47 1.75917e-47 2.1634e-47 2.62495e-47 3.14313e-47 3.7151e-47 4.33584e-47 4.9982e-47 5.69312e-47 6.40999e-47 7.13715e-47 7.86247e-47 8.57392e-47 9.26017e-47 9.91109e-47 1.05181e-46 1.10746e-46 1.15758e-46 1.20189e-46 1.24028e-46 1.27282e-46 1.29969e-46 1.32118e-46 1.33762e-46 1.34944e-46 1.35704e-46 1.36086e-46 1.36133e-46 1.35885e-46 1.35384e-46 1.34667e-46 1.33769e-46 1.32726e-46 1.31571e-46 1.30334e-46 1.29046e-46 1.27737e-46 1.26433e-46 1.25163e-46 1.23952e-46 1.22825e-46 1.21805e-46 1.20912e-46 1.20166e-46 1.1958e-46 1.19165e-46 1.18924e-46 1.18858e-46 1.18958e-46 1.19208e-46 1.19587e-46 1.20064e-46 1.20605e-46 1.2117e-46 1.21717e-46 1.22205e-46 1.22596e-46 1.22857e-46 1.22965e-46 1.22904e-46 1.22672e-46 1.22278e-46 1.21742e-46 1.2109e-46 1.20356e-46 1.19578e-46 1.18792e-46 1.1803e-46 1.17321e-46 1.16682e-46 1.16126e-46 1.15654e-46 1.15261e-46 1.14935e-46 1.14661e-46 1.14423e-46 1.14205e-46 1.13993e-46 1.13782e-46 1.13567e-46 1.13355e-46 1.13154e-46 1.12982e-46 1.12857e-46 1.12803e-46 1.12844e-46 1.13002e-46 1.13299e-46 1.13751e-46 1.14371e-46 1.15164e-46 1.16129e-46 1.1726e-46 1.1854e-46 1.19944e-46 1.21439e-46 1.22983e-46 1.2452e-46 1.25988e-46 1.27312e-46 1.28407e-46 1.29181e-46 1.29539e-46 1.2938e-46 1.28612e-46 1.27149e-46 1.24922e-46 1.21881e-46 1.18004e-46 1.13301e-46 1.0781e-46 1.01606e-46 9.47921e-47 8.74966e-47 7.98681e-47 7.20663e-47 6.4254e-47 5.65881e-47 4.9212e-47 4.22492e-47 3.57981e-47 2.99297e-47 2.46867e-47 2.00851e-47 1.61165e-47 1.27529e-47 9.95038e-48 7.65479e-48 5.80581e-48 4.34118e-48 3.20005e-48 2.32541e-48 1.66585e-48 1.17644e-48 8.19039e-49 5.62152e-49 3.80393e-49 2.5378e-49 1.66936e-49 1.08277e-49 6.92534e-50 4.36811e-50 2.71722e-50 1.66712e-50 1.00891e-50 6.02313e-51 3.54739e-51 2.06135e-51 1.18192e-51 6.68745e-52 3.73429e-52 2.05812e-52 1.11968e-52 6.01332e-53 3.18844e-53 1.66927e-53 8.62983e-54 4.40604e-54 2.22181e-54 1.10667e-54 5.44536e-55 2.64701e-55 1.27108e-55 6.02482e-56 2.80715e-56 1.25832e-56 4.79368e-57 0 
0 1.86896e-76 6.87416e-76 2.32673e-75 7.76315e-75 2.56732e-74 8.41877e-74 2.7374e-73 8.82518e-73 2.82085e-72 8.9388e-72 2.808e-71 8.74387e-71 2.69882e-70 8.25618e-70 2.50318e-69 7.52113e-69 2.23936e-68 6.60673e-68 1.93126e-67 5.59312e-67 1.60472e-66 4.56085e-66 1.28399e-65 3.58025e-65 9.88718e-65 2.70398e-64 7.32279e-64 1.96362e-63 5.21327e-63 1.37026e-62 3.56534e-62 9.18269e-62 2.34085e-61 5.90575e-61 1.47448e-60 3.64276e-60 8.90449e-60 2.15347e-59 5.15206e-59 1.21926e-58 2.85397e-58 6.60689e-58 1.51252e-57 3.42388e-57 7.66323e-57 1.69566e-56 3.70899e-56 8.01906e-56 1.71356e-55 3.61858e-55 7.5509e-55 1.55682e-54 3.17111e-54 6.3808e-54 1.26819e-53 2.48942e-53 4.8258e-53 9.23749e-53 1.74585e-52 3.2575e-52 5.99989e-52 1.09078e-51 1.95716e-51 3.46548e-51 6.0549e-51 1.0438e-50 1.77521e-50 2.97828e-50 4.92862e-50 8.04437e-50 1.29488e-49 2.05542e-49 3.21719e-49 4.96507e-49 7.55473e-49 1.13327e-48 1.67589e-48 2.44309e-48 3.51075e-48 4.973e-48 6.9437e-48 9.55692e-48 1.29661e-47 1.73411e-47 2.28635e-47 2.97193e-47 3.80894e-47 4.8138e-47 5.99999e-47 7.37674e-47 8.94774e-47 1.07102e-46 1.26539e-46 1.47614e-46 1.70078e-46 1.93617e-46 2.17868e-46 2.4243e-46 2.66891e-46 2.90841e-46 3.13898e-46 3.35722e-46 3.56029e-46 3.74599e-46 3.91279e-46 4.05982e-46 4.18684e-46 4.29411e-46 4.38232e-46 4.4525e-46 4.5059e-46 4.5439e-46 4.56794e-46 4.57948e-46 4.57996e-46 4.57078e-46 4.55324e-46 4.52862e-46 4.4981e-46 4.46282e-46 4.42386e-46 4.38226e-46 4.33901e-46 4.29507e-46 4.25137e-46 4.20881e-46 4.16825e-46 4.13052e-46 4.09638e-46 4.06652e-46 4.04156e-46 4.02197e-46 4.00809e-46 4.00009e-46 3.99792e-46 4.00131e-46 4.00976e-46 4.0225e-46 4.03856e-46 4.05676e-46 4.07576e-46 4.09418e-46 4.11062e-46 4.1238e-46 4.13262e-46 4.13627e-46 4.13428e-46 4.12657e-46 4.11341e-46 4.09546e-46 4.07365e-46 4.0491e-46 4.02307e-46 3.99676e-46 3.9713e-46 3.94758e-46 3.92626e-46 3.9077e-46 3.89196e-46 3.87886e-46 3.86801e-46 3.85889e-46 3.85095e-46 3.84366e-46 3.8366e-46 3.8295e-46 3.8223e-46 3.81514e-46 3.80838e-46 3.80255e-46 3.79833e-46 3.79649e-46 3.79782e-46 3.8031e-46 3.81304e-46 3.82822e-46 3.84903e-46 3.8757e-46 3.90821e-46 3.94631e-46 3.98948e-46 4.03692e-46 4.08753e-46 4.13988e-46 4.19217e-46 4.24229e-46 4.28773e-46 4.32566e-46 4.35301e-46 4.36648e-46 4.36275e-46 4.33859e-46 4.2911e-46 4.21786e-46 4.11717e-46 3.9882e-46 3.83117e-46 3.64738e-46 3.43923e-46 3.21018e-46 2.96456e-46 2.70736e-46 2.444e-46 2.17998e-46 1.92066e-46 1.67092e-46 1.43499e-46 1.21625e-46 1.01714e-46 8.39155e-47 6.82868e-47 5.4803e-47 4.33704e-47 3.38425e-47 2.60362e-47 1.97475e-47 1.47655e-47 1.08836e-47 7.90822e-48 5.66452e-48 3.99973e-48 2.78412e-48 1.9105e-48 1.29248e-48 8.62054e-49 5.66897e-49 3.67584e-49 2.35027e-49 1.4819e-49 9.21489e-50 5.65151e-50 3.41883e-50 2.04017e-50 1.20106e-50 6.97615e-51 3.99813e-51 2.26114e-51 1.26203e-51 6.95226e-52 3.78039e-52 2.02929e-52 1.07546e-52 5.62762e-53 2.90792e-53 1.48391e-53 7.47906e-54 3.7234e-54 1.83116e-54 8.89684e-55 4.27005e-55 2.02297e-55 9.4211e-56 4.22122e-56 1.60757e-56 0 
0 6.11362e-76 2.24909e-75 7.61444e-75 2.5412e-74 8.40607e-74 2.75726e-73 8.96781e-73 2.89197e-72 9.24643e-72 2.9309e-71 9.20977e-71 2.86873e-70 8.8572e-70 2.71045e-69 8.22048e-69 2.47078e-68 7.35911e-68 2.1719e-67 6.35111e-67 1.84002e-66 5.28119e-66 1.50156e-65 4.22891e-65 1.17965e-64 3.25904e-64 8.91664e-64 2.41578e-63 6.48072e-63 1.72134e-62 4.52641e-62 1.17828e-61 3.03611e-61 7.74328e-61 1.95449e-60 4.88213e-60 1.20674e-59 2.95128e-59 7.14102e-59 1.70933e-58 4.04733e-58 9.47873e-58 2.19548e-57 5.02883e-57 1.139e-56 2.55068e-56 5.64708e-56 1.23591e-55 2.67362e-55 5.71641e-55 1.20785e-54 2.52188e-54 5.20253e-54 1.06033e-53 2.13481e-53 4.24544e-53 8.33851e-53 1.61738e-52 3.09776e-52 5.85803e-52 1.09365e-51 2.0155e-51 3.66625e-51 6.58188e-51 1.16607e-50 2.03846e-50 3.51591e-50 5.98264e-50 1.00421e-49 1.66263e-49 2.71496e-49 4.37214e-49 6.94306e-49 1.08718e-48 1.67847e-48 2.55482e-48 3.83367e-48 5.67094e-48 8.26917e-48 1.18856e-47 1.68392e-47 2.35159e-47 3.23696e-47 4.39195e-47 5.87403e-47 7.74452e-47 1.00661e-46 1.28996e-46 1.63e-46 2.03121e-46 2.49662e-46 3.02734e-46 3.62227e-46 4.27783e-46 4.9879e-46 5.74391e-46 6.53513e-46 7.34912e-46 8.17229e-46 8.99064e-46 9.79042e-46 1.05588e-45 1.12845e-45 1.1958e-45 1.25723e-45 1.31226e-45 1.36061e-45 1.40223e-45 1.43725e-45 1.46592e-45 1.48861e-45 1.50574e-45 1.51781e-45 1.52529e-45 1.52868e-45 1.52846e-45 1.52509e-45 1.519e-45 1.51061e-45 1.50031e-45 1.48847e-45 1.47543e-45 1.46155e-45 1.44714e-45 1.43251e-45 1.41798e-45 1.40384e-45 1.39037e-45 1.37784e-45 1.3665e-45 1.35659e-45 1.34831e-45 1.34182e-45 1.33722e-45 1.33458e-45 1.33387e-45 1.33502e-45 1.33784e-45 1.3421e-45 1.34746e-45 1.35354e-45 1.35988e-45 1.36603e-45 1.37152e-45 1.37592e-45 1.37888e-45 1.38011e-45 1.37947e-45 1.37692e-45 1.37256e-45 1.36661e-45 1.35937e-45 1.35122e-45 1.34258e-45 1.33385e-45 1.32541e-45 1.31754e-45 1.31048e-45 1.30434e-45 1.29913e-45 1.2948e-45 1.29122e-45 1.28821e-45 1.28559e-45 1.28317e-45 1.28083e-45 1.27847e-45 1.27607e-45 1.27368e-45 1.27142e-45 1.26947e-45 1.26805e-45 1.26742e-45 1.26785e-45 1.2696e-45 1.2729e-45 1.27795e-45 1.28489e-45 1.29379e-45 1.30465e-45 1.31739e-45 1.33184e-45 1.34774e-45 1.36474e-45 1.38236e-45 1.40001e-45 1.417e-45 1.43249e-45 1.44554e-45 1.45511e-45 1.46012e-45 1.45944e-45 1.45197e-45 1.43674e-45 1.4129e-45 1.37987e-45 1.33734e-45 1.28537e-45 1.22436e-45 1.1551e-45 1.07874e-45 9.96706e-46 9.10682e-46 8.22478e-46 7.33954e-46 6.46914e-46 5.63014e-46 4.83686e-46 4.10084e-46 3.43046e-46 2.83086e-46 2.3041e-46 1.84944e-46 1.46381e-46 1.14233e-46 8.78878e-47 6.66608e-47 4.98422e-47 3.67364e-47 2.66908e-47 1.91158e-47 1.34956e-47 9.39222e-48 6.44367e-48 4.35816e-48 2.90601e-48 1.91047e-48 1.23838e-48 7.91529e-49 4.98897e-49 3.1011e-49 1.90116e-49 1.14961e-49 6.85728e-50 4.03514e-50 2.34267e-50 1.34199e-50 7.58599e-51 4.23198e-51 2.33015e-51 1.26642e-51 6.79462e-52 3.59908e-52 1.88234e-52 9.72145e-53 4.95828e-53 2.49772e-53 1.24282e-53 6.10898e-54 2.96655e-54 1.42306e-54 6.7384e-55 3.13655e-55 1.40473e-55 5.34783e-56 0 
0 1.98289e-75 7.29622e-75 2.4708e-74 8.24804e-74 2.72911e-73 8.95415e-73 2.91309e-72 9.39693e-72 3.00534e-71 9.52909e-71 2.99525e-70 9.33277e-70 2.88242e-69 8.82361e-69 2.677e-68 8.04889e-68 2.39817e-67 7.08029e-67 2.07119e-66 6.00286e-66 1.72359e-65 4.90248e-65 1.38126e-64 3.85459e-64 1.06535e-63 2.91602e-63 7.90377e-63 2.12125e-62 5.63678e-62 1.48292e-61 3.86202e-61 9.95611e-61 2.54042e-60 6.41547e-60 1.60332e-59 3.96501e-59 9.70204e-59 2.34876e-58 5.62516e-58 1.33263e-57 3.12268e-57 7.23679e-57 1.65854e-56 3.7586e-56 8.42181e-56 1.86562e-55 4.08542e-55 8.8431e-55 1.89183e-54 3.99971e-54 8.35602e-54 1.72484e-53 3.51752e-53 7.08623e-53 1.41007e-52 2.7712e-52 5.37839e-52 1.03074e-51 1.95034e-51 3.6433e-51 6.71822e-51 1.22277e-50 2.19646e-50 3.89352e-50 6.8102e-50 1.17526e-49 2.00086e-49 3.36027e-49 5.56622e-49 9.09365e-49 1.46511e-48 2.32765e-48 3.64628e-48 5.63162e-48 8.57508e-48 1.28718e-47 1.90463e-47 2.77803e-47 3.99392e-47 5.65962e-47 7.90488e-47 1.08824e-46 1.47665e-46 1.975e-46 2.60386e-46 3.3842e-46 4.3363e-46 5.47844e-46 6.82539e-46 8.38692e-46 1.01664e-45 1.21595e-45 1.43538e-45 1.67281e-45 1.9253e-45 2.1892e-45 2.46029e-45 2.73399e-45 3.0056e-45 3.27052e-45 3.52448e-45 3.76375e-45 3.98526e-45 4.18672e-45 4.3666e-45 4.52414e-45 4.65925e-45 4.77243e-45 4.86465e-45 4.93717e-45 4.99151e-45 5.02929e-45 5.05217e-45 5.06179e-45 5.05973e-45 5.0475e-45 5.02653e-45 4.99815e-45 4.96364e-45 4.92419e-45 4.88093e-45 4.83496e-45 4.78733e-45 4.73905e-45 4.69112e-45 4.64449e-45 4.6001e-45 4.55883e-45 4.52151e-45 4.48889e-45 4.46164e-45 4.44028e-45 4.42518e-45 4.41652e-45 4.41425e-45 4.41809e-45 4.42748e-45 4.44159e-45 4.45934e-45 4.47945e-45 4.50045e-45 4.52081e-45 4.53899e-45 4.5536e-45 4.56342e-45 4.56756e-45 4.5655e-45 4.55715e-45 4.54283e-45 4.52323e-45 4.4994e-45 4.47259e-45 4.44414e-45 4.41542e-45 4.38764e-45 4.36179e-45 4.33858e-45 4.31841e-45 4.30133e-45 4.28715e-45 4.27541e-45 4.26556e-45 4.25696e-45 4.24904e-45 4.24134e-45 4.23355e-45 4.22562e-45 4.21771e-45 4.21021e-45 4.20372e-45 4.19898e-45 4.19686e-45 4.19824e-45 4.20398e-45 4.21487e-45 4.23156e-45 4.2545e-45 4.28395e-45 4.31993e-45 4.36219e-45 4.4102e-45 4.46311e-45 4.51976e-45 4.57862e-45 4.63777e-45 4.69491e-45 4.74731e-45 4.79188e-45 4.82517e-45 4.84355e-45 4.84326e-45 4.82064e-45 4.77235e-45 4.69556e-45 4.58822e-45 4.44926e-45 4.27873e-45 4.07792e-45 3.84939e-45 3.59687e-45 3.32512e-45 3.0397e-45 2.74663e-45 2.45215e-45 2.16228e-45 1.8826e-45 1.61793e-45 1.37218e-45 1.1482e-45 9.47745e-46 7.71553e-46 6.1941e-46 4.90319e-46 3.82671e-46 2.94433e-46 2.23323e-46 1.66975e-46 1.23062e-46 8.94022e-47 6.40211e-47 4.5191e-47 3.14444e-47 2.15681e-47 1.45838e-47 9.72175e-48 6.3893e-48 4.14022e-48 2.64536e-48 1.66673e-48 1.03562e-48 6.34634e-49 3.83592e-49 2.28706e-49 1.3452e-49 7.80608e-50 4.46952e-50 2.52528e-50 1.40807e-50 7.74894e-51 4.20931e-51 2.25721e-51 1.195e-51 6.24662e-52 3.22437e-52 1.64366e-52 8.27541e-53 4.11549e-53 2.02184e-53 9.81288e-54 4.70475e-54 2.22659e-54 1.03589e-54 4.63714e-55 1.76475e-55 0 
0 6.37645e-75 2.34677e-74 7.94914e-74 2.6543e-73 8.78491e-73 2.88312e-72 9.38247e-72 3.02745e-71 9.68534e-71 3.0719e-70 9.65885e-70 3.01053e-69 9.30109e-69 2.84819e-68 8.64414e-68 2.59994e-67 7.74933e-67 2.28874e-66 6.69776e-66 1.94194e-65 5.57804e-65 1.58723e-64 4.47379e-64 1.249e-63 3.45353e-63 9.45689e-63 2.5644e-62 6.88558e-62 1.83054e-61 4.81803e-61 1.25538e-60 3.23789e-60 8.26596e-60 2.0885e-59 5.22214e-59 1.29211e-58 3.16334e-58 7.66224e-58 1.83606e-57 4.35214e-57 1.02038e-56 2.36606e-56 5.42568e-56 1.23029e-55 2.75829e-55 6.11385e-55 1.33964e-54 2.90146e-54 6.21095e-54 1.31392e-53 2.74667e-53 5.67315e-53 1.15766e-52 2.33361e-52 4.64647e-52 9.13735e-52 1.77449e-51 3.40281e-51 6.4427e-51 1.20425e-50 2.22198e-50 4.04662e-50 7.27322e-50 1.29003e-49 2.2577e-49 3.89837e-49 6.6406e-49 1.11582e-48 1.8493e-48 3.02275e-48 4.87238e-48 7.74441e-48 1.21369e-47 1.87529e-47 2.85654e-47 4.28936e-47 6.34897e-47 9.26301e-47 1.33206e-46 1.888e-46 2.63744e-46 3.63132e-46 4.9278e-46 6.59111e-46 8.68964e-46 1.1293e-45 1.44684e-45 1.82761e-45 2.27643e-45 2.79643e-45 3.38858e-45 4.0513e-45 4.78019e-45 5.56801e-45 6.40478e-45 7.27816e-45 8.17395e-45 9.07682e-45 9.97107e-45 1.08414e-44 1.16739e-44 1.24562e-44 1.31784e-44 1.38332e-44 1.4416e-44 1.49244e-44 1.53587e-44 1.57209e-44 1.60143e-44 1.62435e-44 1.64136e-44 1.65302e-44 1.65988e-44 1.66248e-44 1.66134e-44 1.65695e-44 1.64978e-44 1.64026e-44 1.62878e-44 1.61574e-44 1.60149e-44 1.58639e-44 1.57078e-44 1.55497e-44 1.53928e-44 1.52404e-44 1.50953e-44 1.49605e-44 1.48386e-44 1.47322e-44 1.46432e-44 1.45735e-44 1.45244e-44 1.44962e-44 1.4489e-44 1.45018e-44 1.45327e-44 1.45791e-44 1.46374e-44 1.47034e-44 1.47724e-44 1.48392e-44 1.4899e-44 1.4947e-44 1.49794e-44 1.49932e-44 1.49867e-44 1.49595e-44 1.49128e-44 1.48489e-44 1.47711e-44 1.46835e-44 1.45907e-44 1.44969e-44 1.44063e-44 1.4322e-44 1.42464e-44 1.41807e-44 1.41252e-44 1.40791e-44 1.4041e-44 1.4009e-44 1.3981e-44 1.39553e-44 1.39301e-44 1.39047e-44 1.38787e-44 1.38527e-44 1.3828e-44 1.38066e-44 1.37909e-44 1.37838e-44 1.37882e-44 1.38069e-44 1.38425e-44 1.38972e-44 1.39724e-44 1.40692e-44 1.41875e-44 1.43265e-44 1.44847e-44 1.46594e-44 1.48467e-44 1.50419e-44 1.52386e-44 1.54294e-44 1.56054e-44 1.57565e-44 1.58713e-44 1.59379e-44 1.59438e-44 1.58769e-44 1.57258e-44 1.5481e-44 1.51356e-44 1.46856e-44 1.4131e-44 1.34757e-44 1.2728e-44 1.18998e-44 1.10069e-44 1.00675e-44 9.1015e-45 8.12958e-45 7.17181e-45 6.24676e-45 5.3706e-45 4.5564e-45 3.81379e-45 3.14879e-45 2.56397e-45 2.05875e-45 1.62991e-45 1.27219e-45 9.7889e-46 7.42485e-46 5.55129e-46 4.0911e-46 2.97181e-46 2.12783e-46 1.50174e-46 1.04472e-46 7.16415e-47 4.84297e-47 3.22744e-47 2.12046e-47 1.37357e-47 8.77313e-48 5.52545e-48 3.43183e-48 2.10215e-48 1.27004e-48 7.56878e-49 4.44967e-49 2.58086e-49 1.47698e-49 8.34071e-50 4.64827e-50 2.55671e-50 1.38809e-50 7.43951e-51 3.93645e-51 2.05657e-51 1.06097e-51 5.40543e-52 2.71999e-52 1.35194e-52 6.63809e-53 3.21997e-53 1.54295e-53 7.29826e-54 3.39362e-54 1.51842e-54 5.77655e-55 0 
0 2.03288e-74 7.4834e-74 2.53549e-73 8.46854e-73 2.80361e-72 9.20381e-72 2.99605e-71 9.67029e-71 3.09466e-70 9.81841e-70 3.08816e-69 9.62857e-69 2.97577e-68 9.11561e-68 2.76753e-67 8.32704e-67 2.48286e-66 7.33584e-66 2.14759e-65 6.22915e-65 1.78999e-64 5.09551e-64 1.43684e-63 4.01309e-63 1.11012e-62 3.04125e-62 8.25062e-62 2.21638e-61 5.89507e-61 1.55234e-60 4.04676e-60 1.04426e-59 2.66725e-59 6.74262e-59 1.68683e-58 4.17593e-58 1.02291e-57 2.47905e-57 5.94375e-57 1.40968e-56 3.30698e-56 7.67269e-56 1.76048e-55 3.99431e-55 8.96061e-55 1.98736e-54 4.35729e-54 9.44309e-54 2.02268e-53 4.28165e-53 8.95618e-53 1.85105e-52 3.77964e-52 7.62388e-52 1.51897e-51 2.98899e-51 5.8084e-51 1.11455e-50 2.11156e-50 3.94937e-50 7.29161e-50 1.32875e-49 2.38971e-49 4.24112e-49 7.42687e-49 1.28314e-48 2.18698e-48 3.67684e-48 6.09704e-48 9.971e-48 1.60803e-47 2.5571e-47 4.00926e-47 6.19738e-47 9.44388e-47 1.41861e-46 2.10047e-46 3.06545e-46 4.40937e-46 6.25102e-46 8.73392e-46 1.20268e-45 1.6322e-45 2.18321e-45 2.87828e-45 3.74035e-45 4.7915e-45 6.05139e-45 7.53569e-45 9.25434e-45 1.121e-44 1.33968e-44 1.57996e-44 1.83937e-44 2.11454e-44 2.40133e-44 2.69501e-44 2.99047e-44 3.28252e-44 3.56613e-44 3.83672e-44 4.09031e-44 4.32374e-44 4.53468e-44 4.72172e-44 4.88426e-44 5.02247e-44 5.13711e-44 5.22943e-44 5.30099e-44 5.35354e-44 5.38894e-44 5.40902e-44 5.41557e-44 5.41027e-44 5.39472e-44 5.37039e-44 5.33865e-44 5.30078e-44 5.258e-44 5.21146e-44 5.16226e-44 5.11146e-44 5.06012e-44 5.00923e-44 4.9598e-44 4.91278e-44 4.8691e-44 4.82963e-44 4.79516e-44 4.76637e-44 4.74384e-44 4.72795e-44 4.71888e-44 4.71661e-44 4.72082e-44 4.73092e-44 4.74604e-44 4.76504e-44 4.78654e-44 4.809e-44 4.83078e-44 4.85026e-44 4.86593e-44 4.87652e-44 4.88107e-44 4.87902e-44 4.87028e-44 4.85519e-44 4.8345e-44 4.80931e-44 4.78096e-44 4.7509e-44 4.72055e-44 4.69122e-44 4.66397e-44 4.63953e-44 4.61833e-44 4.60042e-44 4.58556e-44 4.57329e-44 4.56299e-44 4.55399e-44 4.54567e-44 4.53754e-44 4.52928e-44 4.52082e-44 4.51236e-44 4.5043e-44 4.4973e-44 4.49217e-44 4.48981e-44 4.49119e-44 4.49723e-44 4.50878e-44 4.52654e-44 4.55103e-44 4.58254e-44 4.62112e-44 4.66653e-44 4.71826e-44 4.77546e-44 4.83694e-44 4.90113e-44 4.96606e-44 5.0293e-44 5.08799e-44 5.13883e-44 5.17815e-44 5.20199e-44 5.20628e-44 5.18699e-44 5.14036e-44 5.06322e-44 4.95315e-44 4.8088e-44 4.63003e-44 4.41804e-44 4.17543e-44 3.9061e-44 3.6151e-44 3.30841e-44 2.99256e-44 2.67434e-44 2.36037e-44 2.05681e-44 1.76902e-44 1.50136e-44 1.25706e-44 1.03815e-44 8.45528e-45 6.79043e-45 5.37672e-45 4.19709e-45 3.22965e-45 2.44972e-45 1.83152e-45 1.34967e-45 9.80314e-46 7.01812e-46 4.95223e-46 3.44441e-46 2.36144e-46 1.5959e-46 1.06322e-46 6.98316e-47 4.5219e-47 2.88708e-47 1.8176e-47 1.12843e-47 6.90908e-48 4.1723e-48 2.48529e-48 1.46039e-48 8.46613e-49 4.84253e-49 2.73321e-49 1.5224e-49 8.36917e-50 4.5413e-50 2.43257e-50 1.28641e-50 6.71697e-51 3.46328e-51 1.76346e-51 8.8686e-52 4.40552e-52 2.16189e-52 1.04808e-52 5.01937e-53 2.37286e-53 1.10276e-53 4.93168e-54 1.87547e-54 0 