# vtk DataFile Version 3.0
Gray-Scott Simulation Output
ASCII
DATASET STRUCTURED_POINTS
DIMENSIONS 256 256 1
SPACING 1.0 1.0 1.0
ORIGIN 0 0 0
POINT_DATA 65536
SCALARS u double
LOOKUP_TABLE default
0 0 0 0 0 0 0 0 0 0 0 0 0 0 0 0 0 0 0 0 0 0 0 0 0 0 0 0 0 0 0 0 0 0 0 0 0 0 0 0 0 0 0 0 0 0 0 0 0 0 0 0 0 0 0 0 0 0 0 0 0 0 0 0 0 0 0 0 0 0 0 0 0 0 0 0 0 0 0 0 0 0 0 0 0 0 0 0 0 0 0 0 0 0 0 0 0 0 0 0 0 0 0 0 0 0 0 0 0 0 0 0 0 0 0 0 0 0 0 0 0 0 0 0 0 0 0 0 0 0 0 0 0 0 0 0 0 0 0 0 0 0 0 0 0 0 0 0 0 0 0 0 0 0 0 0 0 0 0 0 0 0 0 0 0 0 0 0 0 0 0 0 0 0 0 0 0 0 0 0 0 0 0 0 0 0 0 0 0 0 0 0 0 0 0 0 0 0 0 0 0 0 0 0 0 0 0 0 0 0 0 0 0 0 0 0 0 0 0 0 0 0 0 0 0 0 0 0 0 0 0 0 0 0 0 0 0 0 0 0 0 0 0 0 0 0 0 0 0 0 0 0 0 0 0 0 
0 2.59632e-163 4.02693e-162 6.1546e-161 9.30543e-160 1.39171e-158 2.05868e-157 3.0117e-156 4.35684e-155 6.23188e-154 8.81264e-153 1.23192e-151 1.70214e-150 2.32432e-149 3.13637e-148 4.18154e-147 5.50766e-146 7.16577e-145 9.20799e-144 1.16846e-142 1.46402e-141 1.81094e-140 2.21116e-139 2.66457e-138 3.16856e-137 3.71751e-136 4.30257e-135 4.91154e-134 5.529e-133 6.13674e-132 6.7145e-131 7.24091e-130 7.69474e-129 8.05622e-128 8.30841e-127 8.43847e-126 8.43873e-125 8.30735e-124 8.04864e-123 7.67285e-122 7.19551e-121 6.63636e-120 6.01799e-119 5.36431e-118 4.69892e-117 4.04376e-116 3.41782e-115 2.83636e-114 2.31041e-113 1.84668e-112 1.44787e-111 1.11315e-110 8.38903e-110 6.19504e-109 4.48112e-108 3.17372e-107 2.19996e-106 1.49189e-105 9.89345e-105 6.41279e-104 4.06095e-103 2.51116e-102 1.51553e-101 8.92194e-101 5.12057e-100 2.86343e-99 1.55918e-98 8.26174e-98 4.25715e-97 2.13174e-96 1.03657e-95 4.89079e-95 2.2373e-94 9.91437e-94 4.25225e-93 1.76351e-92 7.06513e-92 2.73147e-91 1.01799e-90 3.6531e-90 1.26079e-89 4.17968e-89 1.32923e-88 4.04968e-88 1.1803e-87 3.28612e-87 8.72633e-87 2.20683e-86 5.30655e-86 1.21139e-85 2.62127e-85 5.36864e-85 1.03933e-84 1.89972e-84 3.27567e-84 5.32595e-84 8.16662e-84 1.18203e-83 1.61797e-83 2.10095e-83 2.59973e-83 3.08407e-83 3.53339e-83 3.94113e-83 4.31252e-83 4.65721e-83 4.98089e-83 5.28093e-83 5.54798e-83 5.77162e-83 5.94566e-83 6.06951e-83 6.14547e-83 6.17497e-83 6.1573e-83 6.09194e-83 5.98275e-83 5.84119e-83 5.68606e-83 5.53918e-83 5.41807e-83 5.32876e-83 5.26226e-83 5.19756e-83 5.11065e-83 4.98572e-83 4.82318e-83 4.64059e-83 4.46585e-83 4.32599e-83 4.23655e-83 4.19582e-83 4.1862e-83 4.18191e-83 4.15991e-83 4.10999e-83 4.03996e-83 3.97367e-83 3.94265e-83 3.97479e-83 4.08488e-83 4.27041e-83 4.51336e-83 4.78561e-83 5.05472e-83 5.28822e-83 5.45635e-83 5.53457e-83 5.50682e-83 5.36919e-83 5.13284e-83 4.82467e-83 4.48484e-83 4.16053e-83 3.89689e-83 3.72691e-83 3.66335e-83 3.69561e-83 3.79347e-83 3.91719e-83 4.03046e-83 4.1111e-83 4.15484e-83 4.17103e-83 4.17315e-83 4.17005e-83 4.16242e-83 4.14516e-83 4.11254e-83 4.06183e-83 3.99383e-83 3.91178e-83 3.82109e-83 3.73077e-83 3.65488e-83 3.6117e-83 3.61919e-83 3.6882e-83 3.8163e-83 3.98556e-83 4.16645e-83 4.32743e-83 4.44701e-83 4.52285e-83 4.573e-83 4.62822e-83 4.71904e-83 4.86435e-83 5.06667e-83 5.31429e-83 5.5864e-83 5.85687e-83 6.09527e-83 6.26707e-83 6.33592e-83 6.26879e-83 6.0427e-83 5.65075e-83 5.10559e-83 4.4395e-83 3.7008e-83 2.94669e-83 2.23355e-83 1.6071e-83 1.09522e-83 7.05826e-84 4.29768e-84 2.47161e-84 1.34283e-84 6.89651e-85 3.35122e-85 1.54257e-85 6.7348e-86 2.79291e-86 1.10174e-86 4.14032e-87 1.48446e-87 5.08529e-88 1.66685e-88 5.23488e-89 1.57735e-89 4.56579e-90 1.27117e-90 3.40798e-91 8.8082e-92 2.19703e-92 5.29405e-93 1.23357e-93 2.78207e-94 6.07829e-95 1.28757e-95 2.64659e-96 5.28276e-97 1.02474e-97 1.93305e-98 3.5485e-99 6.34299e-100 1.10473e-100 1.87581e-101 3.10694e-102 5.02253e-103 7.92832e-104 1.22271e-104 1.84315e-105 2.71697e-106 3.91825e-107 5.53048e-108 7.64322e-109 1.03467e-109 1.37247e-110 1.7846e-111 2.27544e-112 2.84593e-113 3.49207e-114 4.14965e-115 0 
0 4.02519e-162 6.23928e-161 9.52993e-160 1.43998e-158 2.15228e-157 3.18179e-156 4.65187e-155 6.72542e-154 9.61391e-153 1.35869e-151 1.89815e-150 2.62107e-149 3.57695e-148 4.82369e-147 6.42724e-146 8.46042e-145 1.10008e-143 1.41275e-142 1.79164e-141 2.24349e-140 2.77344e-139 3.38434e-138 4.07589e-137 4.84392e-136 5.67975e-135 6.56973e-134 7.49514e-133 8.43241e-132 9.35378e-131 1.02284e-129 1.10238e-128 1.17079e-127 1.22508e-126 1.26269e-125 1.28171e-124 1.28101e-123 1.26034e-122 1.22039e-121 1.16275e-120 1.08979e-119 1.00453e-118 9.10413e-118 8.11064e-117 7.10061e-116 6.10716e-115 5.15894e-114 4.27889e-113 3.48352e-112 2.7828e-111 2.18063e-110 1.67559e-109 1.26209e-108 9.31511e-108 6.73437e-107 4.76702e-106 3.30263e-105 2.23848e-104 1.48367e-103 9.61188e-103 6.08364e-102 3.75999e-101 2.26805e-100 1.33453e-99 7.65542e-99 4.27878e-98 2.32871e-97 1.23332e-96 6.35202e-96 3.1792e-95 1.54517e-94 7.28705e-94 3.33192e-93 1.47583e-92 6.32693e-92 2.62276e-91 1.05029e-90 4.05881e-90 1.51203e-89 5.42374e-89 1.87112e-88 6.20056e-88 1.97115e-87 6.00312e-87 1.74901e-86 4.86775e-86 1.2922e-85 3.26683e-85 7.85303e-85 1.79218e-84 3.87699e-84 7.93848e-84 1.53649e-83 2.80787e-83 4.84071e-83 7.86939e-83 1.20652e-82 1.74614e-82 2.38998e-82 3.1033e-82 3.83999e-82 4.55539e-82 5.2191e-82 5.82135e-82 6.36981e-82 6.87864e-82 7.35625e-82 7.79882e-82 8.1926e-82 8.52229e-82 8.77883e-82 8.96136e-82 9.07326e-82 9.11666e-82 9.09053e-82 8.99412e-82 8.83315e-82 8.62449e-82 8.39588e-82 8.17942e-82 8.00094e-82 7.86926e-82 7.77113e-82 7.67559e-82 7.54724e-82 7.36279e-82 7.12291e-82 6.85347e-82 6.59559e-82 6.38917e-82 6.25709e-82 6.19686e-82 6.18258e-82 6.17621e-82 6.14384e-82 6.07042e-82 5.96744e-82 5.87004e-82 5.82466e-82 5.87238e-82 6.03498e-82 6.30877e-82 6.66718e-82 7.06874e-82 7.46563e-82 7.80996e-82 8.05781e-82 8.173e-82 8.13185e-82 7.92862e-82 7.57977e-82 7.125e-82 6.62355e-82 6.14499e-82 5.75591e-82 5.505e-82 5.41109e-82 5.45858e-82 5.60292e-82 5.78549e-82 5.95273e-82 6.07188e-82 6.13661e-82 6.16065e-82 6.1639e-82 6.15944e-82 6.14831e-82 6.12302e-82 6.0751e-82 6.00046e-82 5.90023e-82 5.77915e-82 5.64521e-82 5.51168e-82 5.39938e-82 5.33528e-82 5.34593e-82 5.44735e-82 5.63598e-82 5.88538e-82 6.15203e-82 6.38943e-82 6.56586e-82 6.67785e-82 6.752e-82 6.83365e-82 6.96779e-82 7.18229e-82 7.48088e-82 7.84626e-82 8.24775e-82 8.64679e-82 8.99845e-82 9.25182e-82 9.35329e-82 9.25412e-82 8.92043e-82 8.34198e-82 7.53743e-82 6.55438e-82 5.46412e-82 4.35103e-82 3.29834e-82 2.37351e-82 1.61774e-82 1.04273e-82 6.35021e-83 3.65278e-83 1.98502e-83 1.01972e-83 4.95645e-84 2.28212e-84 9.9667e-85 4.13451e-85 1.63152e-85 6.13339e-86 2.19986e-86 7.53887e-87 2.47203e-87 7.76675e-88 2.3412e-88 6.77965e-89 1.88834e-89 5.06481e-90 1.30962e-90 3.26805e-91 7.87841e-92 1.8366e-92 4.14401e-93 9.05817e-94 1.91972e-94 3.94788e-95 7.88407e-96 1.53008e-96 2.88777e-97 5.30374e-98 9.48531e-99 1.65286e-99 2.80796e-100 4.65328e-101 7.52618e-102 1.18867e-102 1.83415e-103 2.7663e-104 4.07997e-105 5.88703e-106 8.31383e-107 1.14961e-107 1.55708e-108 2.06657e-109 2.6886e-110 3.42998e-111 4.29232e-112 5.26976e-113 6.2655e-114 0 
0 6.14919e-161 9.52568e-160 1.45405e-158 2.19572e-157 3.27981e-156 4.84563e-155 7.08004e-154 1.02296e-152 1.4614e-151 2.06406e-150 2.8818e-149 3.97691e-148 5.42391e-147 7.30993e-146 9.73403e-145 1.28055e-143 1.66404e-142 2.13569e-141 2.70683e-140 3.38743e-139 4.18508e-138 5.10384e-137 6.14305e-136 7.29621e-135 8.55006e-134 9.88389e-133 1.12694e-131 1.26711e-130 1.40473e-129 1.53517e-128 1.65358e-127 1.75516e-126 1.83546e-125 1.89071e-124 1.91808e-123 1.91591e-122 1.88391e-121 1.82314e-120 1.73602e-119 1.62615e-118 1.49808e-117 1.35695e-116 1.20818e-115 1.05713e-114 9.08712e-114 7.67192e-113 6.35964e-112 5.1746e-111 4.13143e-110 3.23564e-109 2.4849e-108 1.87066e-107 1.37992e-106 9.97079e-106 7.05417e-105 4.88458e-104 3.30895e-103 2.19201e-102 1.41934e-101 8.97876e-101 5.54644e-100 3.34393e-99 1.96658e-98 1.12754e-97 6.29891e-97 3.42645e-96 1.81381e-95 9.33719e-95 4.67103e-94 2.26915e-93 1.06963e-92 4.88848e-92 2.16429e-91 9.27419e-91 3.8428e-90 1.53818e-89 5.94168e-89 2.21251e-88 7.93312e-88 2.73572e-87 9.06206e-87 2.8797e-86 8.76681e-86 2.55328e-85 7.10367e-85 1.88512e-84 4.76425e-84 1.14491e-83 2.61211e-83 5.64921e-83 1.15644e-82 2.23778e-82 4.08861e-82 7.04745e-82 1.14551e-81 1.75607e-81 2.54124e-81 3.47804e-81 4.51594e-81 5.58789e-81 6.62895e-81 7.5948e-81 8.47117e-81 9.26908e-81 1.00091e-80 1.07034e-80 1.13464e-80 1.19185e-80 1.23973e-80 1.27698e-80 1.30348e-80 1.31972e-80 1.32601e-80 1.3222e-80 1.30819e-80 1.28481e-80 1.25452e-80 1.22133e-80 1.1899e-80 1.16399e-80 1.14487e-80 1.1306e-80 1.1167e-80 1.09803e-80 1.0712e-80 1.03632e-80 9.97153e-81 9.59664e-81 9.29648e-81 9.10434e-81 9.01661e-81 8.99569e-81 8.98641e-81 8.93949e-81 8.83311e-81 8.68394e-81 8.54297e-81 8.47757e-81 8.54738e-81 8.78399e-81 9.18201e-81 9.70289e-81 1.02864e-80 1.0863e-80 1.13632e-80 1.17232e-80 1.18903e-80 1.18301e-80 1.15345e-80 1.10272e-80 1.03661e-80 9.63714e-81 8.94145e-81 8.37579e-81 8.01093e-81 7.87425e-81 7.94311e-81 8.15283e-81 8.41826e-81 8.66152e-81 8.83497e-81 8.92933e-81 8.96451e-81 8.96941e-81 8.96309e-81 8.9471e-81 8.91061e-81 8.84125e-81 8.73303e-81 8.5875e-81 8.41149e-81 8.21658e-81 8.02211e-81 7.85838e-81 7.76463e-81 7.7795e-81 7.92632e-81 8.19993e-81 8.56197e-81 8.9492e-81 9.29407e-81 9.55051e-81 9.71343e-81 9.82145e-81 9.94039e-81 1.01356e-80 1.04475e-80 1.08816e-80 1.14128e-80 1.19964e-80 1.25763e-80 1.30873e-80 1.34555e-80 1.36028e-80 1.34585e-80 1.29732e-80 1.21322e-80 1.09625e-80 9.5332e-81 7.94793e-81 6.32935e-81 4.79847e-81 3.45341e-81 2.35411e-81 1.5176e-81 9.24383e-82 5.31833e-82 2.89079e-82 1.48539e-82 7.22182e-83 3.32613e-83 1.45307e-83 6.02974e-84 2.3802e-84 8.95107e-85 3.21164e-85 1.10104e-85 3.61177e-86 1.13522e-86 3.42338e-87 9.91759e-88 2.76353e-88 7.41542e-89 1.91827e-89 4.78905e-90 1.15504e-90 2.69386e-91 6.08113e-92 1.32987e-92 2.81979e-93 5.80166e-94 1.15918e-94 2.25077e-95 4.25006e-96 7.80969e-97 1.39741e-97 2.4363e-98 4.14104e-99 6.866e-100 1.11108e-100 1.75574e-101 2.71059e-102 4.09035e-103 6.03602e-104 8.71413e-105 1.2313e-105 1.70353e-106 2.3086e-107 3.06568e-108 3.99064e-109 5.09388e-110 6.37809e-111 7.83489e-112 9.32041e-113 0 
0 9.29302e-160 1.43868e-158 2.19472e-157 3.31211e-156 4.94431e-155 7.30025e-154 1.06599e-152 1.53925e-151 2.19762e-150 3.10196e-149 4.32823e-148 5.96931e-147 8.13627e-146 1.09587e-144 1.45839e-143 1.91739e-142 2.49009e-141 3.19394e-140 4.04563e-139 5.0598e-138 6.24747e-137 7.61441e-136 9.1593e-135 1.08722e-133 1.27329e-132 1.47105e-131 1.67627e-130 1.88364e-129 2.08699e-128 2.27943e-127 2.4538e-126 2.60301e-125 2.72052e-124 2.80077e-123 2.83966e-122 2.83481e-121 2.78584e-120 2.69442e-119 2.5642e-118 2.40055e-117 2.21022e-116 2.00086e-115 1.78049e-114 1.55701e-113 1.33766e-112 1.1287e-111 9.35117e-111 7.60449e-110 6.06812e-109 4.7498e-108 3.64575e-107 2.74306e-106 2.02237e-105 1.4605e-104 1.03273e-103 7.14719e-103 4.83914e-102 3.20401e-101 2.07353e-100 1.31104e-99 8.09448e-99 4.87764e-98 2.8671e-97 1.64303e-96 9.17408e-96 4.988e-95 2.63913e-94 1.35792e-93 6.7899e-93 3.29692e-92 1.55337e-91 7.09601e-91 3.14021e-90 1.345e-89 5.57059e-89 2.2288e-88 8.60572e-88 3.20317e-87 1.14805e-86 3.95742e-86 1.31038e-85 4.16247e-85 1.26673e-84 3.68795e-84 1.0257e-83 2.72101e-83 6.8746e-83 1.65156e-82 3.76696e-82 8.14462e-82 1.66686e-81 3.22476e-81 5.89074e-81 1.0152e-80 1.64989e-80 2.52898e-80 3.65943e-80 5.00812e-80 6.5024e-80 8.04577e-80 9.54475e-80 1.09355e-79 1.21973e-79 1.33459e-79 1.44107e-79 1.54093e-79 1.63339e-79 1.7156e-79 1.78441e-79 1.83792e-79 1.87599e-79 1.89931e-79 1.90833e-79 1.90284e-79 1.8827e-79 1.8491e-79 1.80558e-79 1.7579e-79 1.71276e-79 1.67554e-79 1.64806e-79 1.62754e-79 1.60753e-79 1.58065e-79 1.54205e-79 1.49188e-79 1.43553e-79 1.38161e-79 1.33842e-79 1.31077e-79 1.29812e-79 1.29509e-79 1.29375e-79 1.28702e-79 1.27177e-79 1.2504e-79 1.23021e-79 1.22089e-79 1.23099e-79 1.26505e-79 1.32231e-79 1.39721e-79 1.4811e-79 1.56399e-79 1.63588e-79 1.6876e-79 1.71159e-79 1.7029e-79 1.66034e-79 1.58736e-79 1.49226e-79 1.38741e-79 1.28735e-79 1.20598e-79 1.15348e-79 1.1338e-79 1.14368e-79 1.17383e-79 1.21201e-79 1.24702e-79 1.272e-79 1.28561e-79 1.29071e-79 1.29144e-79 1.29055e-79 1.28828e-79 1.28307e-79 1.27314e-79 1.25761e-79 1.23671e-79 1.21139e-79 1.18333e-79 1.1553e-79 1.13168e-79 1.11811e-79 1.12016e-79 1.14119e-79 1.18046e-79 1.23246e-79 1.2881e-79 1.33767e-79 1.37455e-79 1.398e-79 1.41357e-79 1.43071e-79 1.45881e-79 1.5037e-79 1.56614e-79 1.64254e-79 1.72647e-79 1.80987e-79 1.88335e-79 1.93627e-79 1.95743e-79 1.93664e-79 1.86683e-79 1.74585e-79 1.57758e-79 1.37196e-79 1.14389e-79 9.11005e-80 6.90725e-80 4.97164e-80 3.3895e-80 2.18542e-80 1.3314e-80 7.66159e-81 4.1654e-81 2.14085e-81 1.04114e-81 4.79652e-82 2.09606e-82 8.70073e-83 3.4357e-83 1.2925e-83 4.63915e-84 1.59102e-84 5.22109e-85 1.64169e-85 4.95273e-86 1.43541e-86 4.00144e-87 1.07418e-87 2.77998e-88 6.94344e-89 1.6754e-89 3.90927e-90 8.82893e-91 1.93169e-91 4.09781e-92 8.43524e-93 1.6862e-93 3.27568e-94 6.18844e-95 1.13772e-95 2.03679e-96 3.55283e-97 6.04194e-98 1.00229e-98 1.62279e-99 2.5657e-100 3.96312e-101 5.98363e-102 8.83459e-103 1.27612e-103 1.80413e-104 2.4974e-105 3.3863e-106 4.49926e-107 5.85998e-108 7.48413e-109 9.37616e-110 1.15242e-110 1.37166e-111 0 
0 1.3892e-158 2.14934e-157 3.27678e-156 4.94201e-155 7.37284e-154 1.08792e-152 1.58762e-151 2.29103e-150 3.26894e-149 4.6113e-148 6.43029e-147 8.86295e-146 1.2073e-144 1.62511e-143 2.16138e-142 2.83991e-141 3.68591e-140 4.72491e-139 5.98123e-138 7.4761e-137 9.22539e-136 1.12371e-134 1.35089e-133 1.60256e-132 1.87572e-131 2.16576e-130 2.46642e-129 2.76991e-128 3.06712e-127 3.34797e-126 3.60197e-125 3.81876e-124 3.98881e-123 4.10409e-122 4.15866e-121 4.14916e-120 4.07513e-119 3.93914e-118 3.74661e-117 3.5055e-116 3.22573e-115 2.91852e-114 2.59563e-113 2.26855e-112 1.94787e-111 1.64268e-110 1.36018e-109 1.10551e-108 8.8167e-108 6.89747e-107 5.29132e-106 3.97903e-105 2.93203e-104 2.1163e-103 1.49565e-102 1.03454e-101 7.00089e-101 4.63288e-100 2.9967e-99 1.89375e-98 1.16862e-97 7.0384e-97 4.13513e-96 2.3685e-95 1.32183e-94 7.18334e-94 3.79883e-93 1.95368e-92 9.76417e-92 4.73888e-91 2.23172e-90 1.01901e-89 4.50741e-89 1.92973e-88 7.98886e-88 3.19498e-87 1.2331e-86 4.58787e-86 1.64367e-85 5.6636e-85 1.8746e-84 5.95247e-84 1.8108e-83 5.27009e-83 1.46522e-82 3.88571e-82 9.81414e-82 2.35705e-81 5.37457e-81 1.16174e-80 2.37703e-80 4.59767e-80 8.39704e-80 1.44688e-79 2.35113e-79 3.60343e-79 5.2137e-79 7.1348e-79 9.26331e-79 1.14619e-78 1.35973e-78 1.55786e-78 1.7376e-78 1.90119e-78 2.05278e-78 2.19488e-78 2.32639e-78 2.4433e-78 2.54112e-78 2.61719e-78 2.67128e-78 2.70441e-78 2.7172e-78 2.70938e-78 2.68073e-78 2.63296e-78 2.5711e-78 2.50334e-78 2.4392e-78 2.3863e-78 2.34722e-78 2.31803e-78 2.28954e-78 2.25125e-78 2.1963e-78 2.12489e-78 2.0447e-78 1.96796e-78 1.90649e-78 1.86711e-78 1.84908e-78 1.84474e-78 1.84283e-78 1.83328e-78 1.81166e-78 1.78134e-78 1.75274e-78 1.73959e-78 1.75406e-78 1.80258e-78 1.88406e-78 1.99061e-78 2.10994e-78 2.22783e-78 2.33007e-78 2.40359e-78 2.43765e-78 2.42522e-78 2.36462e-78 2.26074e-78 2.1254e-78 1.97619e-78 1.83379e-78 1.71799e-78 1.64326e-78 1.61521e-78 1.62924e-78 1.67213e-78 1.72646e-78 1.77632e-78 1.81192e-78 1.83134e-78 1.83864e-78 1.83972e-78 1.83849e-78 1.8353e-78 1.82794e-78 1.81388e-78 1.79184e-78 1.76212e-78 1.72609e-78 1.68612e-78 1.64616e-78 1.61244e-78 1.59302e-78 1.5958e-78 1.62559e-78 1.68135e-78 1.75524e-78 1.83433e-78 1.90483e-78 1.9573e-78 1.9907e-78 2.0129e-78 2.03734e-78 2.07738e-78 2.14128e-78 2.23015e-78 2.33887e-78 2.45829e-78 2.57695e-78 2.68147e-78 2.75673e-78 2.7868e-78 2.75719e-78 2.65782e-78 2.48563e-78 2.24613e-78 1.95346e-78 1.62882e-78 1.29731e-78 9.83715e-79 7.08129e-79 4.82843e-79 3.11367e-79 1.89724e-79 1.09199e-79 5.93819e-80 3.05274e-80 1.485e-80 6.8433e-81 2.99139e-81 1.24211e-81 4.90643e-82 1.84641e-82 6.6297e-83 2.27453e-83 7.46695e-84 2.34879e-84 7.08877e-85 2.05532e-85 5.73197e-86 1.53939e-86 3.98569e-87 9.95931e-88 2.40419e-88 5.61234e-89 1.26811e-89 2.77581e-90 5.89128e-91 1.21329e-91 2.42652e-92 4.71618e-93 8.91424e-94 1.63967e-94 2.93687e-95 5.12546e-96 8.72079e-97 1.44743e-97 2.34472e-98 3.70903e-99 5.73218e-100 8.65918e-101 1.27917e-101 1.84871e-102 2.61503e-103 3.62186e-104 4.91364e-105 6.53216e-106 8.51236e-107 1.08776e-107 1.36351e-108 1.67681e-109 1.99691e-110 0 
0 2.05399e-157 3.17593e-156 4.83885e-155 7.29337e-154 1.0874e-152 1.60356e-151 2.33864e-150 3.37273e-149 4.80938e-148 6.78015e-147 9.44888e-146 1.30155e-144 1.77187e-143 2.38362e-142 3.16826e-141 4.16036e-140 5.39644e-139 6.91342e-138 8.74637e-137 1.09257e-135 1.34741e-134 1.64025e-133 1.97068e-132 2.33642e-131 2.73304e-130 3.15376e-129 3.58946e-128 4.02876e-127 4.45841e-126 4.86381e-125 5.22974e-124 5.54126e-123 5.78465e-122 5.94838e-121 6.02398e-120 6.00675e-119 5.8962e-118 5.69617e-117 5.41467e-116 5.06333e-115 4.65659e-114 4.21073e-113 3.74277e-112 3.2693e-111 2.80559e-110 2.3647e-109 1.95695e-108 1.58966e-107 1.2671e-106 9.90738e-106 7.59623e-105 5.70921e-104 4.2047e-103 3.03327e-102 2.14256e-101 1.48123e-100 1.00184e-99 6.62631e-99 4.2839e-98 2.7058e-97 1.66888e-96 1.00463e-95 5.89934e-95 3.37732e-94 1.88391e-93 1.02329e-92 5.40893e-92 2.78041e-91 1.38894e-90 6.73785e-90 3.17165e-89 1.44753e-88 6.39999e-88 2.73878e-87 1.13333e-86 4.53056e-86 1.74783e-85 6.50029e-85 2.32788e-84 8.01803e-84 2.65287e-83 8.42059e-83 2.5607e-82 7.44994e-82 2.07057e-81 5.48931e-81 1.38601e-80 3.32778e-80 7.58594e-80 1.63932e-79 3.35341e-79 6.48479e-79 1.18413e-78 2.04003e-78 3.3145e-78 5.07936e-78 7.34856e-78 1.00557e-77 1.30552e-77 1.61536e-77 1.91631e-77 2.19555e-77 2.44886e-77 2.67933e-77 2.89283e-77 3.09287e-77 3.27792e-77 3.44238e-77 3.57995e-77 3.68691e-77 3.76296e-77 3.80951e-77 3.82746e-77 3.81642e-77 3.77611e-77 3.70893e-77 3.62194e-77 3.52668e-77 3.43651e-77 3.36214e-77 3.30719e-77 3.2661e-77 3.22596e-77 3.17202e-77 3.09462e-77 2.99407e-77 2.88119e-77 2.77314e-77 2.68659e-77 2.63111e-77 2.60568e-77 2.59953e-77 2.59683e-77 2.58344e-77 2.5531e-77 2.51058e-77 2.47049e-77 2.45215e-77 2.47265e-77 2.54102e-77 2.65573e-77 2.80569e-77 2.97359e-77 3.13946e-77 3.28328e-77 3.38667e-77 3.43451e-77 3.41693e-77 3.33155e-77 3.18528e-77 2.99474e-77 2.78468e-77 2.58422e-77 2.42118e-77 2.31594e-77 2.27641e-77 2.29611e-77 2.35646e-77 2.43296e-77 2.50319e-77 2.55338e-77 2.5808e-77 2.59114e-77 2.59272e-77 2.59104e-77 2.58661e-77 2.57633e-77 2.55662e-77 2.52568e-77 2.48389e-77 2.43317e-77 2.37683e-77 2.32047e-77 2.27286e-77 2.24533e-77 2.24907e-77 2.29082e-77 2.36913e-77 2.47299e-77 2.58423e-77 2.6834e-77 2.75726e-77 2.80431e-77 2.83564e-77 2.87012e-77 2.92653e-77 3.01653e-77 3.14166e-77 3.2947e-77 3.46281e-77 3.62981e-77 3.7769e-77 3.88278e-77 3.92505e-77 3.88331e-77 3.74338e-77 3.50093e-77 3.16371e-77 2.75162e-77 2.29447e-77 1.82763e-77 1.38596e-77 9.97799e-78 6.80446e-78 4.38861e-78 2.67456e-78 1.5397e-78 8.37462e-79 4.3063e-79 2.09534e-79 9.65859e-80 4.22328e-80 1.75418e-80 6.93138e-81 2.60934e-81 9.37238e-82 3.21668e-82 1.05638e-82 3.32423e-83 1.00367e-83 2.91124e-84 8.12235e-85 2.18229e-85 5.65267e-86 1.41309e-86 3.41274e-87 7.97031e-88 1.80172e-88 3.94569e-89 8.37812e-90 1.72626e-90 3.45412e-91 6.71667e-92 1.27017e-92 2.33748e-93 4.18883e-94 7.31409e-95 1.2451e-95 2.06761e-96 3.35108e-97 5.30371e-98 8.201e-99 1.23952e-99 1.83204e-100 2.64913e-101 3.74925e-102 5.19557e-103 7.05246e-104 9.38059e-105 1.2231e-105 1.56381e-106 1.96131e-107 2.41331e-108 2.87556e-109 0 
0 3.00338e-156 4.64103e-155 7.0667e-154 1.06447e-152 1.58609e-151 2.3375e-150 3.40693e-149 4.91036e-148 6.99769e-147 9.85912e-146 1.37314e-144 1.89029e-143 2.57178e-142 3.4576e-141 4.59299e-140 6.02756e-139 7.81368e-138 1.00041e-136 1.26489e-135 1.57912e-134 1.94627e-133 2.36785e-132 2.84315e-131 3.36881e-130 3.93834e-129 4.54192e-128 5.16634e-127 5.79522e-126 6.40949e-125 6.9882e-124 7.50957e-123 7.95226e-122 8.29673e-121 8.52662e-120 8.63001e-119 8.60038e-118 8.43725e-117 8.14636e-116 7.73937e-115 7.23308e-114 6.64828e-113 6.00835e-112 5.3376e-111 4.65979e-110 3.99663e-109 3.3667e-108 2.78465e-107 2.26077e-106 1.80105e-105 1.40747e-104 1.07855e-103 8.1019e-103 5.96367e-102 4.2999e-101 3.03564e-100 2.09756e-99 1.41796e-98 9.37368e-98 6.05695e-97 3.82374e-96 2.35721e-95 1.41828e-94 8.32418e-94 4.76317e-93 2.65565e-92 1.44178e-91 7.61734e-91 3.91376e-90 1.95419e-89 9.47548e-89 4.45827e-88 2.03381e-87 8.98814e-87 3.84465e-86 1.59026e-85 6.35447e-85 2.45045e-84 9.10966e-84 3.26104e-83 1.12278e-82 3.71345e-82 1.17826e-81 3.58182e-81 1.04171e-80 2.89427e-80 7.67056e-80 1.93616e-79 4.64736e-79 1.05912e-78 2.28817e-78 4.67961e-78 9.04747e-78 1.65177e-77 2.84522e-77 4.62209e-77 7.08243e-77 1.02457e-76 1.40193e-76 1.82005e-76 2.25197e-76 2.67154e-76 3.06084e-76 3.41396e-76 3.73517e-76 4.03259e-76 4.31114e-76 4.56872e-76 4.79755e-76 4.98892e-76 5.1377e-76 5.24344e-76 5.30814e-76 5.33306e-76 5.31766e-76 5.26155e-76 5.16809e-76 5.0471e-76 4.91462e-76 4.78924e-76 4.68581e-76 4.60938e-76 4.55217e-76 4.49623e-76 4.42107e-76 4.31324e-76 4.1732e-76 4.016e-76 3.86554e-76 3.74499e-76 3.66768e-76 3.6322e-76 3.62358e-76 3.6198e-76 3.60122e-76 3.55912e-76 3.50013e-76 3.44456e-76 3.41925e-76 3.44797e-76 3.54327e-76 3.70301e-76 3.91177e-76 4.14547e-76 4.37631e-76 4.57642e-76 4.72024e-76 4.78672e-76 4.76212e-76 4.64313e-76 4.4394e-76 4.17404e-76 3.88154e-76 3.60238e-76 3.37533e-76 3.22873e-76 3.17362e-76 3.20099e-76 3.28499e-76 3.39154e-76 3.4894e-76 3.55939e-76 3.59768e-76 3.61218e-76 3.61444e-76 3.61218e-76 3.6061e-76 3.5919e-76 3.56457e-76 3.52161e-76 3.46349e-76 3.39285e-76 3.31431e-76 3.23567e-76 3.16916e-76 3.13058e-76 3.13551e-76 3.19338e-76 3.30218e-76 3.4466e-76 3.60133e-76 3.73934e-76 3.84218e-76 3.90775e-76 3.95146e-76 3.99957e-76 4.07822e-76 4.20359e-76 4.37786e-76 4.59098e-76 4.82504e-76 5.05754e-76 5.26229e-76 5.40964e-76 5.4684e-76 5.41021e-76 5.21529e-76 4.87761e-76 4.40794e-76 3.83396e-76 3.19719e-76 2.54687e-76 1.93157e-76 1.39075e-76 9.48541e-77 6.11864e-77 3.72954e-77 2.14745e-77 1.16828e-77 6.0088e-78 2.92448e-78 1.34843e-78 5.89781e-79 2.45046e-79 9.68577e-80 3.64747e-80 1.31058e-80 4.49964e-81 1.47827e-81 4.65361e-82 1.4056e-82 4.07871e-83 1.13843e-83 3.05998e-84 7.92951e-85 1.98313e-85 4.79157e-86 1.11955e-86 2.53195e-87 5.54741e-88 1.17847e-88 2.42931e-89 4.86318e-90 9.46122e-91 1.79005e-91 3.29585e-92 5.90918e-93 1.03232e-93 1.75823e-94 2.9212e-95 4.73697e-96 7.50101e-97 1.16046e-97 1.75487e-98 2.59511e-99 3.75453e-100 5.31652e-101 7.37139e-102 1.00113e-102 1.33234e-103 1.73813e-104 2.22353e-105 2.79026e-106 3.43519e-107 4.09538e-108 0 
0 4.34264e-155 6.70641e-154 1.02052e-152 1.53628e-151 2.28768e-150 3.3694e-149 4.90791e-148 7.06936e-147 1.00683e-145 1.41766e-144 1.97325e-143 2.71477e-142 3.69125e-141 4.95964e-140 6.58427e-139 8.63557e-138 1.11878e-136 1.43154e-135 1.80891e-134 2.25693e-133 2.78002e-132 3.38017e-131 4.05627e-130 4.80336e-129 5.61209e-128 6.46837e-127 7.3533e-126 8.24354e-125 9.11198e-124 9.92889e-123 1.06634e-121 1.12855e-120 1.17675e-119 1.20866e-118 1.22261e-117 1.21772e-116 1.19394e-115 1.15212e-114 1.09394e-113 1.0218e-112 9.38655e-112 8.47828e-111 7.5276e-110 6.56802e-109 5.63018e-108 4.74016e-107 3.9185e-106 3.17958e-105 2.53165e-104 1.97733e-103 1.51443e-102 1.137e-101 8.36484e-101 6.028e-100 4.25341e-99 2.93747e-98 1.98471e-97 1.31135e-96 8.46919e-96 5.34387e-95 3.29266e-94 1.98012e-93 1.1616e-92 6.64352e-92 3.70221e-91 2.009e-90 1.06091e-89 5.44833e-89 2.71915e-88 1.31786e-87 6.19778e-87 2.82609e-86 1.2484e-85 5.33766e-85 2.20687e-84 8.81465e-84 3.39776e-83 1.26262e-82 4.51809e-82 1.55498e-81 5.14098e-81 1.63062e-80 4.95518e-80 1.44064e-79 4.00132e-79 1.06012e-78 2.6751e-78 6.41919e-78 1.46252e-77 3.15892e-77 6.45893e-77 1.2485e-76 2.27894e-76 3.9249e-76 6.37518e-76 9.76766e-76 1.41291e-75 1.93321e-75 2.50971e-75 3.10526e-75 3.6838e-75 4.22062e-75 4.7075e-75 5.15028e-75 5.56009e-75 5.94372e-75 6.29833e-75 6.61324e-75 6.87655e-75 7.08121e-75 7.22664e-75 7.31559e-75 7.3498e-75 7.32854e-75 7.25129e-75 7.12269e-75 6.95625e-75 6.77404e-75 6.6016e-75 6.45935e-75 6.35418e-75 6.27541e-75 6.19831e-75 6.09472e-75 5.94615e-75 5.75324e-75 5.53673e-75 5.32949e-75 5.16342e-75 5.05686e-75 5.00791e-75 4.99596e-75 4.99075e-75 4.96524e-75 4.90745e-75 4.82651e-75 4.75032e-75 4.7158e-75 4.75559e-75 4.88698e-75 5.10699e-75 5.39442e-75 5.71614e-75 6.03389e-75 6.30929e-75 6.50715e-75 6.59851e-75 6.56445e-75 6.40045e-75 6.11977e-75 5.75428e-75 5.35141e-75 4.96693e-75 4.65418e-75 4.45221e-75 4.37621e-75 4.41382e-75 4.52948e-75 4.67625e-75 4.81112e-75 4.90766e-75 4.96055e-75 4.98064e-75 4.98387e-75 4.98085e-75 4.97259e-75 4.95319e-75 4.91574e-75 4.85672e-75 4.77676e-75 4.67947e-75 4.57118e-75 4.46265e-75 4.37074e-75 4.31726e-75 4.32368e-75 4.40301e-75 4.55251e-75 4.75111e-75 4.964e-75 5.15395e-75 5.29557e-75 5.38595e-75 5.44628e-75 5.51268e-75 5.62111e-75 5.79385e-75 6.03391e-75 6.32743e-75 6.64977e-75 6.96992e-75 7.2518e-75 7.45462e-75 7.53543e-75 7.45517e-75 7.18662e-75 6.72144e-75 6.07444e-75 5.28371e-75 4.40643e-75 3.5104e-75 2.66257e-75 1.91728e-75 1.30782e-75 8.43747e-76 5.14382e-76 2.96235e-76 1.61195e-76 8.29269e-77 4.03707e-77 1.86193e-77 8.14611e-78 3.38563e-78 1.33864e-78 5.04274e-79 1.81254e-79 6.22527e-80 2.04595e-80 6.44311e-81 1.94687e-81 5.6516e-82 1.57809e-82 4.24351e-83 1.10011e-83 2.75252e-84 6.65344e-85 1.55527e-85 3.51895e-86 7.71343e-87 1.63936e-87 3.381e-88 6.77156e-89 1.31803e-89 2.4949e-90 4.59586e-91 8.24407e-92 1.44093e-92 2.45541e-93 4.08159e-94 6.62202e-95 1.04914e-95 1.62394e-96 2.45702e-97 3.63536e-98 5.2623e-99 7.45553e-100 1.03427e-100 1.40542e-101 1.87139e-102 2.44268e-103 3.12655e-104 3.92559e-105 4.83559e-106 5.76801e-107 0 
0 6.20841e-154 9.58185e-153 1.45718e-151 2.19226e-150 3.26249e-149 4.80219e-148 6.99063e-147 1.00631e-145 1.43233e-144 2.01555e-143 2.80375e-142 3.85501e-141 5.23845e-140 7.03421e-139 9.33277e-138 1.2233e-136 1.58388e-135 2.02545e-134 2.55784e-133 3.18945e-132 3.92632e-131 4.77109e-130 5.72201e-129 6.77188e-128 7.90737e-127 9.10848e-126 1.03485e-124 1.15946e-123 1.28086e-122 1.39487e-121 1.4972e-120 1.58362e-119 1.65031e-118 1.69408e-117 1.71265e-116 1.70482e-115 1.67057e-114 1.61115e-113 1.52892e-112 1.42729e-111 1.31042e-110 1.18296e-109 1.04972e-108 9.15404e-108 7.84261e-107 6.59923e-106 5.45234e-105 4.42176e-104 3.5188e-103 2.74686e-102 2.10268e-101 1.57781e-100 1.16017e-99 8.35616e-99 5.8931e-98 4.06775e-97 2.74697e-96 1.81407e-95 1.17099e-94 7.38498e-94 4.54803e-93 2.73371e-92 1.60289e-91 9.1629e-91 5.10371e-90 2.7682e-89 1.46113e-88 7.50018e-88 3.74145e-87 1.8125e-86 8.52019e-86 3.88335e-85 1.71468e-84 7.32813e-84 3.02855e-83 1.20916e-82 4.65901e-82 1.73061e-81 6.19031e-81 2.12969e-80 7.03843e-80 2.23165e-79 6.77924e-79 1.97029e-78 5.47064e-78 1.44895e-77 3.6552e-77 8.76861e-77 1.99727e-76 4.3129e-76 8.81645e-76 1.70386e-75 3.10957e-75 5.35462e-75 8.69634e-75 1.33226e-74 1.92699e-74 2.63646e-74 3.42258e-74 4.23472e-74 5.02371e-74 5.75579e-74 6.41972e-74 7.02334e-74 7.58179e-74 8.10431e-74 8.58709e-74 9.01569e-74 9.37397e-74 9.65239e-74 9.8502e-74 9.97112e-74 1.00176e-73 9.98853e-74 9.88336e-74 9.70836e-74 9.48193e-74 9.23409e-74 8.99955e-74 8.80607e-74 8.66297e-74 8.5557e-74 8.45062e-74 8.30941e-74 8.10697e-74 7.84417e-74 7.54925e-74 7.26696e-74 7.04071e-74 6.89548e-74 6.82868e-74 6.81231e-74 6.80519e-74 6.77057e-74 6.69214e-74 6.58229e-74 6.47899e-74 6.43242e-74 6.48695e-74 6.66609e-74 6.96577e-74 7.35715e-74 7.79515e-74 8.22769e-74 8.60251e-74 8.87172e-74 8.99588e-74 8.94925e-74 8.7257e-74 8.34329e-74 7.84541e-74 7.29668e-74 6.77297e-74 6.34693e-74 6.07174e-74 5.96811e-74 6.01922e-74 6.1767e-74 6.37665e-74 6.56049e-74 6.69217e-74 6.76442e-74 6.79197e-74 6.79651e-74 6.79253e-74 6.78145e-74 6.75524e-74 6.70448e-74 6.62431e-74 6.51552e-74 6.38298e-74 6.23532e-74 6.08718e-74 5.96157e-74 5.88825e-74 5.89647e-74 6.00401e-74 6.20716e-74 6.47726e-74 6.76692e-74 7.02549e-74 7.21835e-74 7.34156e-74 7.42389e-74 7.51453e-74 7.66237e-74 7.89777e-74 8.2248e-74 8.62461e-74 9.06361e-74 9.49957e-74 9.88337e-74 1.01594e-73 1.02693e-73 1.01599e-73 9.79394e-74 9.16019e-74 8.27873e-74 7.20141e-74 6.00609e-74 4.78513e-74 3.62975e-74 2.61402e-74 1.78331e-74 1.15068e-74 7.01617e-75 4.04141e-75 2.19958e-75 1.13183e-75 5.51138e-76 2.54257e-76 1.11271e-76 4.62597e-77 1.82963e-77 6.8946e-78 2.47901e-78 8.51731e-79 2.80026e-79 8.82188e-80 2.66667e-80 7.74419e-81 2.16328e-81 5.81948e-82 1.50931e-82 3.77796e-83 9.13614e-84 2.13656e-84 4.83633e-85 1.06059e-85 2.25515e-86 4.65316e-87 9.32386e-88 1.81567e-88 3.43856e-89 6.33725e-90 1.13734e-90 1.98886e-91 3.39081e-92 5.63932e-93 9.15395e-94 1.45102e-94 2.24716e-95 3.40171e-96 5.03572e-97 7.29321e-98 1.03383e-98 1.43494e-99 1.95093e-100 2.59916e-101 3.39445e-102 4.34714e-103 5.4611e-104 6.73073e-105 8.03288e-106 0 