# vtk DataFile Version 3.0
Gray-Scott Simulation Output
ASCII
DATASET STRUCTURED_POINTS
DIMENSIONS 256 256 1
SPACING 1.0 1.0 1.0
ORIGIN 0 0 0
POINT_DATA 65536
SCALARS u double
LOOKUP_TABLE default
0 0 0 0 0 0 0 0 0 0 0 0 0 0 0 0 0 0 0 0 0 0 0 0 0 0 0 0 0 0 0 0 0 0 0 0 0 0 0 0 0 0 0 0 0 0 0 0 0 0 0 0 0 0 0 0 0 0 0 0 0 0 0 0 0 0 0 0 0 0 0 0 0 0 0 0 0 0 0 0 0 0 0 0 0 0 0 0 0 0 0 0 0 0 0 0 0 0 0 0 0 0 0 0 0 0 0 0 0 0 0 0 0 0 0 0 0 0 0 0 0 0 0 0 0 0 0 0 0 0 0 0 0 0 0 0 0 0 0 0 0 0 0 0 0 0 0 0 0 0 0 0 0 0 0 0 0 0 0 0 0 0 0 0 0 0 0 0 0 0 0 0 0 0 0 0 0 0 0 0 0 0 0 0 0 0 0 0 0 0 0 0 0 0 0 0 0 0 0 0 0 0 0 0 0 0 0 0 0 0 0 0 0 0 0 0 0 0 0 0 0 0 0 0 0 0 0 0 0 0 0 0 0 0 0 0 0 0 0 0 0 0 0 0 0 0 0 0 0 0 0 0 0 0 0 0 
0 4.88215e-101 2.82172e-100 1.56831e-99 8.62512e-99 4.69738e-98 2.53324e-97 1.35267e-96 7.15096e-96 3.74243e-95 1.93875e-94 9.9409e-94 5.04461e-93 2.53329e-92 1.25879e-91 6.18863e-91 3.00996e-90 1.44814e-89 6.89118e-89 3.24315e-88 1.50933e-87 6.94539e-87 3.15977e-86 1.42105e-85 6.31699e-85 2.77527e-84 1.20487e-83 5.16851e-83 2.1904e-82 9.16978e-82 3.79154e-81 1.54823e-80 6.24252e-80 2.48501e-79 9.76519e-79 3.7875e-78 1.44971e-77 5.47525e-77 2.0401e-76 7.4982e-76 2.71802e-75 9.71555e-75 3.42397e-74 1.18951e-73 4.0729e-73 1.37425e-72 4.56852e-72 1.49607e-71 4.82522e-71 1.53246e-70 4.79161e-70 1.47473e-69 4.46676e-69 1.33118e-68 3.90258e-68 1.12525e-67 3.19031e-67 8.89225e-67 2.43606e-66 6.55789e-66 1.73437e-65 4.50525e-65 1.1492e-64 2.87784e-64 7.07345e-64 1.70601e-63 4.03658e-63 9.36739e-63 2.13153e-62 4.75469e-62 1.03945e-61 2.22655e-61 4.67195e-61 9.60055e-61 1.93162e-60 3.8043e-60 7.33253e-60 1.38281e-59 2.55101e-59 4.60268e-59 8.12045e-59 1.4007e-58 2.36178e-58 3.89231e-58 6.26909e-58 9.86727e-58 1.51764e-57 2.28098e-57 3.35022e-57 4.80913e-57 6.74792e-57 9.25715e-57 1.24198e-56 1.63021e-56 2.0944e-56 2.63511e-56 3.24889e-56 3.92812e-56 4.66128e-56 5.43363e-56 6.22827e-56 7.02733e-56 7.81323e-56 8.56978e-56 9.28294e-56 9.94131e-56 1.05363e-55 1.10618e-55 1.15145e-55 1.18928e-55 1.21972e-55 1.24298e-55 1.25938e-55 1.2694e-55 1.27362e-55 1.27269e-55 1.26733e-55 1.25825e-55 1.24616e-55 1.23168e-55 1.21537e-55 1.1977e-55 1.17904e-55 1.15974e-55 1.14009e-55 1.12043e-55 1.10107e-55 1.0824e-55 1.0648e-55 1.04864e-55 1.03428e-55 1.02204e-55 1.01222e-55 1.00507e-55 1.00082e-55 9.99676e-56 1.00179e-55 1.00723e-55 1.01592e-55 1.02758e-55 1.04165e-55 1.05732e-55 1.0735e-55 1.08892e-55 1.10222e-55 1.11211e-55 1.1175e-55 1.11769e-55 1.11243e-55 1.10197e-55 1.0871e-55 1.06898e-55 1.04907e-55 1.02891e-55 1.00998e-55 9.93451e-56 9.80168e-56 9.70516e-56 9.64453e-56 9.61569e-56 9.61179e-56 9.62453e-56 9.64523e-56 9.66587e-56 9.67981e-56 9.68222e-56 9.67027e-56 9.64316e-56 9.60205e-56 9.54989e-56 9.49117e-56 9.4316e-56 9.37767e-56 9.33611e-56 9.31328e-56 9.31456e-56 9.34387e-56 9.40337e-56 9.49345e-56 9.61294e-56 9.75956e-56 9.93035e-56 1.01222e-55 1.03317e-55 1.05555e-55 1.07894e-55 1.10276e-55 1.12622e-55 1.14826e-55 1.16747e-55 1.18219e-55 1.19051e-55 1.19047e-55 1.18022e-55 1.15823e-55 1.12347e-55 1.07561e-55 1.01509e-55 9.43175e-56 8.6189e-56 7.73855e-56 6.82086e-56 5.89733e-56 4.99821e-56 4.15008e-56 3.37409e-56 2.68486e-56 2.0902e-56 1.59154e-56 1.18495e-56 8.62462e-57 6.13585e-57 4.26634e-57 2.89902e-57 1.92508e-57 1.24925e-57 7.92262e-58 4.91062e-58 2.97502e-58 1.76189e-58 1.02015e-58 5.77573e-59 3.19804e-59 1.7321e-59 9.17824e-60 4.75917e-60 2.41536e-60 1.20007e-60 5.83853e-61 2.7821e-61 1.29873e-61 5.94074e-62 2.66345e-62 1.17067e-62 5.04566e-63 2.13302e-63 8.84654e-64 3.60043e-64 1.43828e-64 5.64077e-65 2.17243e-65 8.21791e-66 3.05413e-66 1.11537e-66 4.00363e-67 1.41282e-67 4.90244e-68 1.67309e-68 5.61698e-69 1.85545e-69 6.03174e-70 1.92997e-70 6.07611e-71 1.8712e-71 5.24861e-72 0 
0 2.81865e-100 1.62896e-99 9.05302e-99 4.97843e-98 2.71113e-97 1.46197e-96 7.80593e-96 4.12636e-95 2.15938e-94 1.11858e-93 5.73518e-93 2.91021e-92 1.46136e-91 7.26117e-91 3.56966e-90 1.7361e-89 8.35226e-89 3.9744e-88 1.87039e-87 8.70432e-87 4.0053e-86 1.82215e-85 8.19463e-85 3.64269e-84 1.60034e-83 6.94776e-83 2.98035e-82 1.26306e-81 5.28764e-81 2.18636e-80 8.92785e-80 3.5998e-79 1.43303e-78 5.63144e-78 2.18426e-77 8.36082e-77 3.15782e-76 1.17667e-75 4.32494e-75 1.56783e-74 5.60452e-74 1.97528e-73 6.86269e-73 2.34998e-72 7.92974e-72 2.63635e-71 8.63414e-71 2.78499e-70 8.8458e-70 2.76614e-69 8.51436e-69 2.57918e-68 7.68734e-68 2.25395e-67 6.49975e-67 1.84306e-66 5.13779e-66 1.40771e-65 3.79011e-65 1.00252e-64 2.60458e-64 6.6448e-64 1.66427e-63 4.09127e-63 9.86917e-63 2.33553e-62 5.42081e-62 1.2337e-61 2.75243e-61 6.01832e-61 1.28937e-60 2.70595e-60 5.5615e-60 1.11916e-59 2.20454e-59 4.24981e-59 8.01586e-59 1.479e-58 2.6689e-58 4.70941e-58 8.12441e-58 1.37007e-57 2.25822e-57 3.63757e-57 5.72596e-57 8.80765e-57 1.32387e-56 1.94458e-56 2.79153e-56 3.91707e-56 5.37375e-56 7.2097e-56 9.46324e-56 1.21574e-55 1.52954e-55 1.88568e-55 2.27972e-55 2.70495e-55 3.1528e-55 3.61343e-55 4.07648e-55 4.53174e-55 4.96983e-55 5.38263e-55 5.76356e-55 6.10766e-55 6.41151e-55 6.67311e-55 6.89168e-55 7.06748e-55 7.2017e-55 7.29634e-55 7.35412e-55 7.37838e-55 7.37293e-55 7.34187e-55 7.28938e-55 7.21948e-55 7.13583e-55 7.04164e-55 6.93956e-55 6.83182e-55 6.72033e-55 6.60688e-55 6.49329e-55 6.38153e-55 6.27371e-55 6.17205e-55 6.07873e-55 5.99583e-55 5.92521e-55 5.86852e-55 5.82725e-55 5.80273e-55 5.79616e-55 5.80841e-55 5.83988e-55 5.89012e-55 5.95747e-55 6.0388e-55 6.12935e-55 6.22286e-55 6.31197e-55 6.38882e-55 6.44594e-55 6.47711e-55 6.47818e-55 6.44772e-55 6.38728e-55 6.30128e-55 6.19656e-55 6.08151e-55 5.96507e-55 5.85568e-55 5.76027e-55 5.68361e-55 5.62795e-55 5.59305e-55 5.57651e-55 5.57439e-55 5.58186e-55 5.5939e-55 5.6059e-55 5.61399e-55 5.61539e-55 5.60846e-55 5.59274e-55 5.56892e-55 5.53869e-55 5.50465e-55 5.47011e-55 5.43883e-55 5.41469e-55 5.40138e-55 5.40202e-55 5.41886e-55 5.45318e-55 5.50518e-55 5.57418e-55 5.65887e-55 5.75754e-55 5.86835e-55 5.98941e-55 6.11872e-55 6.25382e-55 6.39144e-55 6.52702e-55 6.65434e-55 6.76537e-55 6.85038e-55 6.89843e-55 6.89814e-55 6.8388e-55 6.7115e-55 6.51029e-55 6.2332e-55 5.88279e-55 5.46636e-55 4.99558e-55 4.48562e-55 3.95395e-55 3.41881e-55 2.89774e-55 2.40617e-55 1.95635e-55 1.55678e-55 1.21201e-55 9.22878e-56 6.87112e-56 5.00112e-56 3.55791e-56 2.47379e-56 1.6809e-56 1.11614e-56 7.24255e-57 4.59283e-57 2.84651e-57 1.72436e-57 1.02111e-57 5.9117e-58 3.34662e-58 1.85282e-58 1.00339e-58 5.31617e-59 2.75622e-59 1.39864e-59 6.94815e-60 3.37991e-60 1.61032e-60 7.51616e-61 3.43761e-61 1.54099e-61 6.77218e-62 2.91843e-62 1.23358e-62 5.11545e-63 2.08164e-63 8.3145e-64 3.26044e-64 1.25553e-64 4.74886e-65 1.76467e-65 6.44383e-66 2.31276e-66 8.16047e-67 2.83135e-67 9.66181e-68 3.24339e-68 1.07128e-68 3.48226e-69 1.11412e-69 3.5073e-70 1.08003e-70 3.02924e-71 0 
0 1.56477e-99 9.04242e-99 5.02496e-98 2.7631e-97 1.5046e-96 8.11292e-96 4.33143e-95 2.28952e-94 1.19805e-93 6.20567e-93 3.18157e-92 1.61434e-91 8.10597e-91 4.02746e-90 1.97984e-89 9.6285e-89 4.63203e-88 2.20406e-87 1.03722e-86 4.82681e-86 2.221e-85 1.01039e-84 4.54388e-84 2.01983e-83 8.8736e-83 3.85239e-82 1.65254e-81 7.00345e-81 2.93192e-80 1.21232e-79 4.95052e-79 1.99615e-78 7.94661e-78 3.1229e-77 1.21132e-76 4.63684e-76 1.75138e-75 6.52633e-75 2.39895e-74 8.69693e-74 3.1091e-73 1.09586e-72 3.80764e-72 1.30395e-71 4.40044e-71 1.46313e-70 4.79226e-70 1.54593e-69 4.9108e-69 1.53582e-68 4.72792e-68 1.43237e-67 4.26979e-67 1.25209e-66 3.61117e-66 1.02413e-65 2.85535e-65 7.82463e-65 2.10704e-64 5.57426e-64 1.44845e-63 3.69594e-63 9.25857e-63 2.27645e-62 5.49237e-62 1.30001e-61 3.01791e-61 6.86968e-61 1.53295e-60 3.3525e-60 7.18383e-60 1.50793e-59 3.09983e-59 6.23908e-59 1.22922e-58 2.37006e-58 4.47115e-58 8.2511e-58 1.4892e-57 2.62818e-57 4.53471e-57 7.6483e-57 1.2608e-56 2.03117e-56 3.19767e-56 4.91915e-56 7.39459e-56 1.08624e-55 1.55943e-55 2.18828e-55 3.00212e-55 4.02782e-55 5.28673e-55 6.79164e-55 8.54415e-55 1.05328e-54 1.27327e-54 1.51061e-54 1.7605e-54 2.01744e-54 2.27563e-54 2.52939e-54 2.77347e-54 3.00336e-54 3.21541e-54 3.40688e-54 3.57587e-54 3.72131e-54 3.84277e-54 3.94043e-54 4.01495e-54 4.06747e-54 4.09951e-54 4.11292e-54 4.10984e-54 4.09253e-54 4.06333e-54 4.02446e-54 3.97797e-54 3.92563e-54 3.86891e-54 3.80905e-54 3.74711e-54 3.68408e-54 3.62098e-54 3.55889e-54 3.499e-54 3.44253e-54 3.39069e-54 3.34465e-54 3.30542e-54 3.27395e-54 3.25104e-54 3.23744e-54 3.23381e-54 3.24064e-54 3.25815e-54 3.28609e-54 3.32354e-54 3.36876e-54 3.4191e-54 3.47109e-54 3.52062e-54 3.56335e-54 3.59509e-54 3.61241e-54 3.61299e-54 3.59604e-54 3.56242e-54 3.5146e-54 3.45637e-54 3.39241e-54 3.3277e-54 3.26691e-54 3.21392e-54 3.17136e-54 3.14049e-54 3.12117e-54 3.11205e-54 3.11095e-54 3.11517e-54 3.12192e-54 3.12862e-54 3.13314e-54 3.13392e-54 3.13006e-54 3.12129e-54 3.10801e-54 3.09115e-54 3.07216e-54 3.05289e-54 3.03543e-54 3.02194e-54 3.01447e-54 3.01476e-54 3.02408e-54 3.04311e-54 3.07198e-54 3.11032e-54 3.15738e-54 3.21222e-54 3.2738e-54 3.34109e-54 3.41295e-54 3.48804e-54 3.56453e-54 3.63989e-54 3.71066e-54 3.77239e-54 3.81964e-54 3.84634e-54 3.84615e-54 3.8131e-54 3.7422e-54 3.63015e-54 3.47581e-54 3.2806e-54 3.04858e-54 2.78622e-54 2.50198e-54 2.20559e-54 1.90722e-54 1.61664e-54 1.34247e-54 1.09156e-54 8.68656e-55 6.76301e-55 5.14974e-55 3.83417e-55 2.79066e-55 1.9853e-55 1.38032e-55 9.37865e-56 6.22717e-56 4.0405e-56 2.56206e-56 1.58775e-56 9.61729e-57 5.69445e-57 3.29638e-57 1.86586e-57 1.03287e-57 5.5927e-58 2.96271e-58 1.53582e-58 7.79228e-59 3.87045e-59 1.88247e-59 8.96744e-60 4.18487e-60 1.91369e-60 8.5772e-61 3.76882e-61 1.62389e-61 6.86289e-62 2.84549e-62 1.15775e-62 4.62358e-63 1.81282e-63 6.9798e-64 2.63964e-64 9.80752e-65 3.58082e-65 1.28503e-65 4.53362e-66 1.5728e-66 5.36645e-67 1.80127e-67 5.94894e-68 1.93354e-68 6.18562e-69 1.94708e-69 5.99531e-70 1.68143e-70 0 
0 8.59539e-99 4.96666e-98 2.7598e-97 1.51743e-96 8.26226e-96 4.45476e-95 2.3782e-94 1.25699e-93 6.57713e-93 3.40661e-92 1.74643e-91 8.86095e-91 4.44907e-90 2.21042e-89 1.08656e-88 5.28404e-88 2.54193e-87 1.20949e-86 5.69159e-86 2.64859e-85 1.21869e-84 5.54403e-84 2.49321e-83 1.10826e-82 4.86884e-82 2.11376e-81 9.06735e-81 3.84276e-80 1.60875e-79 6.65217e-79 2.71648e-78 1.09537e-77 4.36076e-77 1.71378e-76 6.64776e-76 2.54483e-75 9.61258e-75 3.58223e-74 1.31684e-73 4.77428e-73 1.7069e-72 6.01679e-72 2.09075e-71 7.16056e-71 2.4167e-70 8.03625e-70 2.63244e-69 8.49295e-69 2.69818e-68 8.43944e-68 2.59836e-67 7.87307e-67 2.34724e-66 6.88413e-66 1.98577e-65 5.63253e-65 1.57065e-64 4.30483e-64 1.15942e-63 3.06783e-63 7.9731e-63 2.03483e-62 5.09834e-62 1.25379e-61 3.02561e-61 7.16284e-61 1.66316e-60 3.78662e-60 8.45143e-60 1.84868e-59 3.96221e-59 8.31862e-59 1.71039e-58 3.44324e-58 6.78517e-58 1.30851e-57 2.46899e-57 4.55715e-57 8.22642e-57 1.45208e-56 2.50585e-56 4.22706e-56 6.96919e-56 1.1229e-55 1.76799e-55 2.72009e-55 4.08929e-55 6.00749e-55 8.62502e-55 1.21036e-54 1.66055e-54 2.2279e-54 2.92419e-54 3.75645e-54 4.72551e-54 5.82495e-54 7.04089e-54 8.35239e-54 9.73283e-54 1.11517e-53 1.2577e-53 1.39772e-53 1.53235e-53 1.65909e-53 1.77595e-53 1.88141e-53 1.97445e-53 2.05449e-53 2.1213e-53 2.175e-53 2.21596e-53 2.24481e-53 2.26239e-53 2.26973e-53 2.268e-53 2.25845e-53 2.24237e-53 2.22097e-53 2.19539e-53 2.1666e-53 2.1354e-53 2.10247e-53 2.06841e-53 2.03375e-53 1.99905e-53 1.9649e-53 1.93197e-53 1.90091e-53 1.87241e-53 1.84709e-53 1.82553e-53 1.80823e-53 1.79564e-53 1.78817e-53 1.78619e-53 1.78996e-53 1.7996e-53 1.81498e-53 1.8356e-53 1.86049e-53 1.88819e-53 1.91681e-53 1.94407e-53 1.96758e-53 1.98505e-53 1.99457e-53 1.99488e-53 1.98555e-53 1.96703e-53 1.94071e-53 1.90866e-53 1.87346e-53 1.83786e-53 1.80442e-53 1.77528e-53 1.7519e-53 1.73495e-53 1.72436e-53 1.71939e-53 1.71882e-53 1.72118e-53 1.72492e-53 1.72864e-53 1.73113e-53 1.73157e-53 1.72943e-53 1.72459e-53 1.71726e-53 1.70795e-53 1.69746e-53 1.68682e-53 1.67717e-53 1.6697e-53 1.66556e-53 1.66568e-53 1.67078e-53 1.68123e-53 1.69711e-53 1.71819e-53 1.74408e-53 1.77425e-53 1.80813e-53 1.84515e-53 1.88469e-53 1.926e-53 1.96809e-53 2.00956e-53 2.0485e-53 2.08247e-53 2.10848e-53 2.12317e-53 2.12306e-53 2.10483e-53 2.06575e-53 2.00398e-53 1.91888e-53 1.81122e-53 1.68324e-53 1.5385e-53 1.38166e-53 1.21807e-53 1.05337e-53 8.92944e-54 7.41554e-54 6.02988e-54 4.79874e-54 3.73622e-54 2.84502e-54 2.11823e-54 1.54172e-54 1.09677e-54 7.62527e-55 5.18075e-55 3.43967e-55 2.23166e-55 1.41496e-55 8.76789e-56 5.3103e-56 3.14389e-56 1.81969e-56 1.02986e-56 5.70015e-57 3.08601e-57 1.63455e-57 8.47188e-58 4.29769e-58 2.13432e-58 1.0379e-58 4.94334e-59 2.30653e-59 1.05457e-59 4.7258e-60 2.07617e-60 8.94419e-61 3.77935e-61 1.56674e-61 6.37356e-62 2.54494e-62 9.97667e-63 3.84068e-63 1.45226e-63 5.39505e-64 1.96951e-64 7.0669e-65 2.49289e-65 8.64718e-66 2.95009e-66 9.90095e-67 3.26955e-67 1.06256e-67 3.3989e-68 1.06979e-68 3.2937e-69 9.23675e-70 0 
0 4.67548e-98 2.70143e-97 1.50097e-96 8.2522e-96 4.49292e-95 2.42228e-94 1.29306e-93 6.83401e-93 3.57564e-92 1.85189e-91 9.49337e-91 4.81646e-90 2.41822e-89 1.20139e-88 5.90535e-88 2.87171e-87 1.38141e-86 6.57278e-86 3.09294e-85 1.43927e-84 6.6224e-84 3.0126e-83 1.35478e-82 6.02216e-82 2.64567e-81 1.1486e-80 4.92715e-80 2.08817e-79 8.74218e-79 3.61496e-78 1.47624e-77 5.95286e-77 2.36999e-76 9.31446e-76 3.61325e-75 1.38326e-74 5.22531e-74 1.9474e-73 7.15919e-73 2.5958e-72 9.28129e-72 3.27191e-71 1.13705e-70 3.89464e-70 1.31458e-69 4.37186e-69 1.43226e-68 4.62141e-68 1.4684e-67 4.59349e-67 1.41446e-66 4.28644e-66 1.27813e-65 3.74917e-65 1.08165e-64 3.06855e-64 8.55819e-64 2.34605e-63 6.31976e-63 1.67252e-62 4.34762e-62 1.10978e-61 2.78116e-61 6.84086e-61 1.65116e-60 3.90976e-60 9.08011e-60 2.06777e-59 4.61608e-59 1.00995e-58 2.16505e-58 4.54649e-58 9.35004e-58 1.88268e-57 3.71075e-57 7.1576e-57 1.35082e-56 2.49377e-56 4.50252e-56 7.94903e-56 1.372e-55 2.31477e-55 3.81697e-55 6.1509e-55 9.68577e-55 1.49034e-54 2.24075e-54 3.29211e-54 4.72682e-54 6.63351e-54 9.10104e-54 1.22106e-53 1.60266e-53 2.05872e-53 2.58967e-53 3.19194e-53 3.85786e-53 4.57594e-53 5.33152e-53 6.10788e-53 6.88743e-53 7.65294e-53 8.38863e-53 9.08091e-53 9.71888e-53 1.02944e-52 1.08019e-52 1.12382e-52 1.16023e-52 1.18948e-52 1.21178e-52 1.22748e-52 1.23704e-52 1.24102e-52 1.24005e-52 1.23483e-52 1.22606e-52 1.21439e-52 1.20044e-52 1.18475e-52 1.16775e-52 1.14981e-52 1.13125e-52 1.11236e-52 1.09345e-52 1.07485e-52 1.05691e-52 1.03999e-52 1.02446e-52 1.01067e-52 9.98929e-53 9.89507e-53 9.82654e-53 9.78592e-53 9.77517e-53 9.79578e-53 9.84841e-53 9.93231e-53 1.00447e-52 1.01804e-52 1.03315e-52 1.04876e-52 1.06362e-52 1.07644e-52 1.08596e-52 1.09115e-52 1.09132e-52 1.08622e-52 1.07612e-52 1.06176e-52 1.04429e-52 1.0251e-52 1.00569e-52 9.87468e-53 9.71595e-53 9.58863e-53 9.49645e-53 9.43896e-53 9.41211e-53 9.40926e-53 9.42233e-53 9.44292e-53 9.46327e-53 9.47696e-53 9.47932e-53 9.46764e-53 9.44116e-53 9.40103e-53 9.3501e-53 9.29274e-53 9.23449e-53 9.18164e-53 9.14072e-53 9.1179e-53 9.11841e-53 9.14605e-53 9.20292e-53 9.28937e-53 9.40427e-53 9.54536e-53 9.7098e-53 9.8945e-53 1.00963e-52 1.03118e-52 1.0537e-52 1.07664e-52 1.09925e-52 1.12049e-52 1.13901e-52 1.15319e-52 1.16121e-52 1.16114e-52 1.15119e-52 1.12984e-52 1.09611e-52 1.04962e-52 9.90799e-53 9.20857e-53 8.4174e-53 7.55989e-53 6.66537e-53 5.76455e-53 4.88697e-53 4.05869e-53 3.30047e-53 2.62671e-53 2.04518e-53 1.55737e-53 1.15953e-53 8.43939e-54 6.00358e-54 4.1738e-54 2.83561e-54 1.88253e-54 1.22129e-54 7.74274e-55 4.79733e-55 2.90518e-55 1.71976e-55 9.95267e-56 5.63195e-56 3.11674e-56 1.68711e-56 8.93457e-57 4.63001e-57 2.34835e-57 1.16603e-57 5.6693e-58 2.69971e-58 1.25944e-58 5.75726e-59 2.57951e-59 1.13304e-59 4.88029e-60 2.06179e-60 8.54571e-61 3.47583e-61 1.38765e-61 5.43897e-62 2.09348e-62 7.91472e-63 2.93981e-63 1.07304e-63 3.84967e-64 1.3578e-64 4.70921e-65 1.60639e-65 5.3906e-66 1.7799e-66 5.78375e-67 1.84989e-67 5.82182e-68 1.79227e-68 5.02578e-69 0 
0 2.51831e-97 1.45494e-96 8.08334e-96 4.44383e-95 2.41928e-94 1.30423e-93 6.96178e-93 3.67917e-92 1.92488e-91 9.96878e-91 5.11005e-90 2.59246e-89 1.30155e-88 6.46593e-88 3.17818e-87 1.54546e-86 7.43412e-86 3.53707e-85 1.6644e-84 7.74499e-84 3.56359e-83 1.6211e-82 7.29017e-82 3.24056e-81 1.42366e-80 6.18076e-80 2.65141e-79 1.12371e-78 4.70455e-78 1.94543e-77 7.94482e-77 3.20382e-76 1.27558e-75 5.0135e-75 1.94494e-74 7.44626e-74 2.81303e-73 1.04845e-72 3.85469e-72 1.39776e-71 4.99815e-71 1.76215e-70 6.12442e-70 2.09797e-69 7.0822e-69 2.35558e-68 7.71804e-68 2.49067e-67 7.91488e-67 2.47632e-66 7.62636e-66 2.31148e-65 6.89349e-65 2.02242e-64 5.83574e-64 1.65585e-63 4.619e-63 1.26644e-62 3.41218e-62 9.03213e-62 2.34832e-61 5.99561e-61 1.50284e-60 3.69735e-60 8.92613e-60 2.11408e-59 4.91088e-59 1.11858e-58 2.49769e-58 5.4659e-58 1.17201e-57 2.46171e-57 5.06375e-57 1.01984e-56 2.01054e-56 3.87894e-56 7.32208e-56 1.35202e-55 2.44157e-55 4.31133e-55 7.4427e-55 1.25591e-54 2.07129e-54 3.33829e-54 5.25748e-54 8.09062e-54 1.21656e-53 1.78752e-53 2.56671e-53 3.60223e-53 4.94233e-53 6.63102e-53 8.70318e-53 1.11794e-52 1.40617e-52 1.73306e-52 2.09442e-52 2.48396e-52 2.89371e-52 3.31458e-52 3.737e-52 4.15164e-52 4.54993e-52 4.92455e-52 5.2696e-52 5.58071e-52 5.85494e-52 6.09061e-52 6.28718e-52 6.44501e-52 6.56528e-52 6.64989e-52 6.70134e-52 6.72268e-52 6.71737e-52 6.6891e-52 6.64164e-52 6.57861e-52 6.50329e-52 6.41855e-52 6.32676e-52 6.22992e-52 6.12973e-52 6.0278e-52 5.92574e-52 5.82533e-52 5.72848e-52 5.63717e-52 5.55337e-52 5.47895e-52 5.41559e-52 5.36476e-52 5.3278e-52 5.3059e-52 5.30014e-52 5.3113e-52 5.33975e-52 5.38509e-52 5.44582e-52 5.51914e-52 5.60077e-52 5.68506e-52 5.76536e-52 5.8346e-52 5.88604e-52 5.91406e-52 5.91494e-52 5.88738e-52 5.8328e-52 5.75522e-52 5.6608e-52 5.55714e-52 5.45233e-52 5.35396e-52 5.2683e-52 5.19964e-52 5.14997e-52 5.11905e-52 5.10469e-52 5.10328e-52 5.11046e-52 5.12168e-52 5.13273e-52 5.14016e-52 5.14144e-52 5.1351e-52 5.12075e-52 5.099e-52 5.07139e-52 5.0403e-52 5.00871e-52 4.98004e-52 4.95782e-52 4.94538e-52 4.94556e-52 4.96041e-52 4.99106e-52 5.03771e-52 5.09974e-52 5.17593e-52 5.26473e-52 5.36446e-52 5.47344e-52 5.58983e-52 5.71144e-52 5.83535e-52 5.95746e-52 6.07217e-52 6.17225e-52 6.24889e-52 6.29219e-52 6.29181e-52 6.23798e-52 6.12254e-52 5.93999e-52 5.68842e-52 5.37003e-52 4.99135e-52 4.56288e-52 4.0984e-52 3.61376e-52 3.12562e-52 2.64998e-52 2.20099e-52 1.78991e-52 1.42459e-52 1.10923e-52 8.44675e-53 6.28898e-53 4.57724e-53 3.25605e-53 2.26357e-53 1.53774e-53 1.02082e-53 6.62197e-54 4.19779e-54 2.60063e-54 1.5747e-54 9.32039e-55 5.39318e-55 3.05139e-55 1.68838e-55 9.13777e-56 4.83833e-56 2.50684e-56 1.27124e-56 6.31098e-57 3.06784e-57 1.46062e-57 6.81265e-58 3.11366e-58 1.39479e-58 6.12539e-59 2.63786e-59 1.11422e-59 4.61734e-60 1.87769e-60 7.49492e-61 2.93715e-61 1.13032e-61 4.27264e-62 1.58675e-62 5.79075e-63 2.07718e-63 7.32524e-64 2.54021e-64 8.66388e-65 2.90696e-65 9.5971e-66 3.11817e-66 9.97207e-67 3.13796e-67 9.65931e-68 2.70836e-68 0 
0 1.34301e-96 7.75857e-96 4.3102e-95 2.36937e-94 1.28983e-93 6.953e-93 3.71119e-92 1.96118e-91 1.026e-90 5.3133e-90 2.7235e-89 1.38164e-88 6.93629e-88 3.44573e-87 1.69361e-86 8.23536e-86 3.96134e-85 1.88473e-84 8.86857e-84 4.12679e-83 1.89879e-82 8.63767e-82 3.8844e-81 1.72667e-80 7.58576e-80 3.29338e-79 1.41281e-78 5.98787e-78 2.50697e-77 1.03672e-76 4.23397e-76 1.70746e-75 6.79849e-75 2.67221e-74 1.03672e-73 3.96938e-73 1.49965e-72 5.58981e-72 2.05531e-71 7.45349e-71 2.66548e-70 9.39843e-70 3.26681e-69 1.1192e-68 3.77858e-68 1.25694e-67 4.11889e-67 1.32938e-66 4.22514e-66 1.32211e-65 4.07238e-65 1.2345e-64 3.68226e-64 1.0805e-63 3.11836e-63 8.84977e-63 2.46913e-62 6.77123e-62 1.82475e-61 4.83117e-61 1.25636e-60 3.20836e-60 8.04375e-60 1.97941e-59 4.77977e-59 1.13231e-58 2.63091e-58 5.99401e-58 1.33873e-57 2.93035e-57 6.28481e-57 1.32039e-56 2.71669e-56 5.47272e-56 1.07916e-55 2.08249e-55 3.9319e-55 7.26181e-55 1.31167e-54 2.3166e-54 3.99995e-54 6.75091e-54 1.11357e-53 1.79502e-53 2.82738e-53 4.35154e-53 6.54398e-53 9.61612e-53 1.38088e-52 1.93808e-52 2.65916e-52 3.56778e-52 4.68261e-52 6.01469e-52 7.56496e-52 9.32279e-52 1.12655e-51 1.3359e-51 1.55605e-51 1.78208e-51 2.00886e-51 2.23135e-51 2.44496e-51 2.64578e-51 2.83066e-51 2.99726e-51 3.14404e-51 3.27012e-51 3.37523e-51 3.45959e-51 3.52384e-51 3.56901e-51 3.59645e-51 3.60778e-51 3.60488e-51 3.58971e-51 3.56429e-51 3.53055e-51 3.49025e-51 3.44492e-51 3.39583e-51 3.34405e-51 3.29048e-51 3.23597e-51 3.1814e-51 3.12771e-51 3.07593e-51 3.02711e-51 2.98231e-51 2.94253e-51 2.90866e-51 2.88149e-51 2.86175e-51 2.85006e-51 2.84699e-51 2.85298e-51 2.86822e-51 2.89248e-51 2.92499e-51 2.96423e-51 3.00792e-51 3.05303e-51 3.096e-51 3.13306e-51 3.16058e-51 3.17557e-51 3.17603e-51 3.16127e-51 3.13205e-51 3.09052e-51 3.03999e-51 2.98452e-51 2.92845e-51 2.87584e-51 2.83005e-51 2.79336e-51 2.76686e-51 2.75039e-51 2.74278e-51 2.7421e-51 2.74601e-51 2.75206e-51 2.75801e-51 2.762e-51 2.76269e-51 2.75929e-51 2.75158e-51 2.7399e-51 2.72507e-51 2.70837e-51 2.69141e-51 2.676e-51 2.66404e-51 2.65733e-51 2.65737e-51 2.66527e-51 2.68164e-51 2.70658e-51 2.73975e-51 2.7805e-51 2.82801e-51 2.88137e-51 2.93966e-51 3.00193e-51 3.06699e-51 3.13328e-51 3.19862e-51 3.26001e-51 3.31358e-51 3.35461e-51 3.3778e-51 3.3776e-51 3.34877e-51 3.28691e-51 3.18908e-51 3.05421e-51 2.88348e-51 2.68037e-51 2.4505e-51 2.20124e-51 1.94112e-51 1.67906e-51 1.42366e-51 1.18253e-51 9.61723e-52 7.65467e-52 5.96036e-52 4.53888e-52 3.37941e-52 2.45956e-52 1.74957e-52 1.21623e-52 8.26186e-53 5.48413e-53 3.5572e-53 2.25474e-53 1.39669e-53 8.45601e-54 5.00426e-54 2.89524e-54 1.63783e-54 9.06079e-55 4.90298e-55 2.59559e-55 1.34458e-55 6.81715e-56 3.38366e-56 1.64451e-56 7.82806e-57 3.65043e-57 1.66806e-57 7.47067e-58 3.28018e-58 1.41231e-58 5.96431e-59 2.47114e-59 1.00472e-59 4.00963e-60 1.57102e-60 6.04475e-61 2.28452e-61 8.48261e-62 3.09516e-62 1.11007e-62 3.91406e-63 1.35709e-63 4.62791e-64 1.55256e-64 5.12494e-65 1.66491e-65 5.32377e-66 1.67505e-66 5.15558e-67 1.44543e-67 0 
0 7.09075e-96 4.09606e-95 2.27537e-94 1.25072e-93 6.80818e-93 3.66981e-92 1.95866e-91 1.035e-90 5.4144e-90 2.80379e-89 1.43711e-88 7.29021e-88 3.65979e-87 1.81801e-86 8.93546e-86 4.34485e-85 2.0899e-84 9.94316e-84 4.67869e-83 2.17711e-82 1.00171e-81 4.55683e-81 2.04924e-80 9.10923e-80 4.00201e-79 1.73752e-78 7.45389e-78 3.15925e-77 1.32275e-76 5.47023e-76 2.23415e-75 9.01027e-75 3.58776e-74 1.41029e-73 5.47177e-73 2.09518e-72 7.91632e-72 2.95099e-71 1.08514e-70 3.93561e-70 1.40758e-69 4.96364e-69 1.72552e-68 5.91228e-68 1.99634e-67 6.64166e-67 2.17673e-66 7.02651e-66 2.23356e-65 6.99028e-65 2.15351e-64 6.52931e-64 1.9479e-63 5.71685e-63 1.65023e-62 4.6842e-62 1.30718e-61 3.58551e-61 9.66451e-61 2.55932e-60 6.65706e-60 1.70041e-59 4.26413e-59 1.04957e-58 2.53506e-58 6.00695e-58 1.39605e-57 3.18142e-57 7.10729e-57 1.55611e-56 3.33829e-56 7.01524e-56 1.44374e-55 2.90911e-55 5.73782e-55 1.10752e-54 2.09156e-54 3.86379e-54 6.9805e-54 1.23313e-53 2.1296e-53 3.59492e-53 5.9309e-53 9.5619e-53 1.50634e-52 2.31868e-52 3.4873e-52 5.12494e-52 7.35998e-52 1.03304e-51 1.41744e-51 1.90178e-51 2.496e-51 3.20592e-51 4.03198e-51 4.96844e-51 6.0031e-51 7.11779e-51 8.28952e-51 9.49208e-51 1.0698e-50 1.18807e-50 1.30156e-50 1.40819e-50 1.50631e-50 1.59468e-50 1.6725e-50 1.73931e-50 1.79498e-50 1.83964e-50 1.87363e-50 1.89751e-50 1.912e-50 1.91797e-50 1.91639e-50 1.90833e-50 1.89484e-50 1.87695e-50 1.85559e-50 1.83157e-50 1.80557e-50 1.77814e-50 1.74976e-50 1.72089e-50 1.69199e-50 1.66356e-50 1.63613e-50 1.61027e-50 1.58655e-50 1.56548e-50 1.54755e-50 1.53317e-50 1.52272e-50 1.51654e-50 1.51493e-50 1.51811e-50 1.52619e-50 1.53906e-50 1.55629e-50 1.5771e-50 1.60026e-50 1.62417e-50 1.64695e-50 1.6666e-50 1.68119e-50 1.68913e-50 1.68937e-50 1.68154e-50 1.66604e-50 1.64402e-50 1.61723e-50 1.58783e-50 1.55812e-50 1.53025e-50 1.506e-50 1.48659e-50 1.47258e-50 1.46389e-50 1.4599e-50 1.45958e-50 1.46168e-50 1.46492e-50 1.46809e-50 1.47022e-50 1.47058e-50 1.46877e-50 1.46467e-50 1.45845e-50 1.45057e-50 1.44169e-50 1.43266e-50 1.42445e-50 1.41808e-50 1.41449e-50 1.41448e-50 1.41865e-50 1.42731e-50 1.44051e-50 1.45809e-50 1.47968e-50 1.50486e-50 1.53313e-50 1.56402e-50 1.59702e-50 1.6315e-50 1.66663e-50 1.70127e-50 1.73381e-50 1.76222e-50 1.78398e-50 1.79628e-50 1.79619e-50 1.78089e-50 1.74807e-50 1.69613e-50 1.62452e-50 1.53383e-50 1.42591e-50 1.30375e-50 1.17125e-50 1.03293e-50 8.93561e-51 7.57706e-51 6.29414e-51 5.1192e-51 4.07473e-51 3.17292e-51 2.41625e-51 1.79901e-51 1.30932e-51 9.31331e-52 6.47389e-52 4.39744e-52 2.91873e-52 1.89301e-52 1.19975e-52 7.4309e-53 4.49827e-53 2.66167e-53 1.53968e-53 8.70841e-54 4.8168e-54 2.60598e-54 1.37932e-54 7.14375e-55 3.62123e-55 1.797e-55 8.73186e-56 4.15559e-56 1.93744e-56 8.85121e-57 3.96332e-57 1.73982e-57 7.48932e-58 3.16215e-58 1.30987e-58 5.32459e-59 2.12451e-59 8.32243e-60 3.20156e-60 1.20975e-60 4.49107e-61 1.63842e-61 5.8751e-62 2.07118e-62 7.18004e-63 2.44813e-63 8.21165e-64 2.71023e-64 8.80329e-65 2.81459e-65 8.85454e-66 2.72497e-66 7.63901e-67 0 
0 3.70607e-95 2.14072e-94 1.18909e-93 6.53575e-93 3.55747e-92 1.91747e-91 1.02335e-90 5.40732e-90 2.82859e-89 1.46469e-88 7.50712e-88 3.8081e-87 1.91166e-86 9.49593e-86 4.66711e-85 2.26933e-84 1.09154e-83 5.19318e-83 2.4436e-82 1.13706e-81 5.23175e-81 2.37996e-80 1.0703e-79 4.75774e-79 2.09029e-78 9.07545e-78 3.89345e-77 1.65025e-76 6.90973e-76 2.85765e-75 1.16718e-74 4.70749e-74 1.87457e-73 7.36913e-73 2.85936e-72 1.09496e-71 4.13749e-71 1.54249e-70 5.67262e-70 2.05757e-69 7.35978e-69 2.59563e-68 9.02434e-68 3.09249e-67 1.04435e-66 3.47498e-66 1.13906e-65 3.67747e-65 1.16917e-64 3.65974e-64 1.12766e-63 3.41963e-63 1.02038e-62 2.99528e-62 8.64794e-62 2.45525e-61 6.85315e-61 1.88018e-60 5.06907e-60 1.34268e-59 3.49329e-59 8.92504e-59 2.2387e-58 5.51169e-58 1.3316e-57 3.1561e-57 7.33687e-57 1.67242e-56 3.73717e-56 8.18455e-56 1.75627e-55 3.6917e-55 7.59954e-55 1.53169e-54 3.02183e-54 5.83422e-54 1.10207e-53 2.03637e-53 3.67986e-53 6.50203e-53 1.12313e-52 1.89631e-52 3.12912e-52 5.0457e-52 7.95004e-52 1.2239e-51 1.84098e-51 2.70577e-51 3.8861e-51 5.45481e-51 7.48482e-51 1.00425e-50 1.31801e-50 1.69281e-50 2.12886e-50 2.62306e-50 3.16894e-50 3.75686e-50 4.37463e-50 5.0084e-50 5.64366e-50 6.26633e-50 6.86355e-50 7.42439e-50 7.94014e-50 8.40442e-50 8.81302e-50 9.16366e-50 9.45568e-50 9.68981e-50 9.86794e-50 9.99299e-50 1.00688e-49 1.00998e-49 1.00913e-49 1.00489e-49 9.97796e-50 9.88401e-50 9.77189e-50 9.64584e-50 9.50939e-50 9.36547e-50 9.21661e-50 9.06516e-50 8.91354e-50 8.76438e-50 8.62051e-50 8.48488e-50 8.36045e-50 8.24996e-50 8.15592e-50 8.08053e-50 8.02575e-50 7.99337e-50 7.98495e-50 8.0017e-50 8.04417e-50 8.11175e-50 8.20226e-50 8.3115e-50 8.43311e-50 8.55869e-50 8.67833e-50 8.78148e-50 8.85808e-50 8.89978e-50 8.90101e-50 8.85987e-50 8.77847e-50 8.66282e-50 8.52215e-50 8.36779e-50 8.21183e-50 8.06559e-50 7.93841e-50 7.83666e-50 7.7633e-50 7.71792e-50 7.6972e-50 7.69573e-50 7.70697e-50 7.7241e-50 7.74087e-50 7.75208e-50 7.754e-50 7.74444e-50 7.72282e-50 7.69007e-50 7.64852e-50 7.60171e-50 7.55412e-50 7.51086e-50 7.47721e-50 7.45819e-50 7.45801e-50 7.47976e-50 7.52513e-50 7.59439e-50 7.68662e-50 7.79996e-50 7.9321e-50 8.08051e-50 8.24267e-50 8.41586e-50 8.59684e-50 8.78128e-50 8.96311e-50 9.13402e-50 9.28322e-50 9.39758e-50 9.46228e-50 9.46183e-50 9.38152e-50 9.20901e-50 8.93595e-50 8.55928e-50 8.08217e-50 7.51423e-50 6.87113e-50 6.17343e-50 5.44494e-50 4.71069e-50 3.99483e-50 3.31869e-50 2.69935e-50 2.1487e-50 1.67321e-50 1.27421e-50 9.48709e-51 6.90454e-51 4.9111e-51 3.41363e-51 2.31857e-51 1.53878e-51 9.97904e-52 6.32377e-52 3.91624e-52 2.37033e-52 1.40232e-52 8.11053e-53 4.58649e-53 2.5364e-53 1.37197e-53 7.26019e-54 3.75941e-54 1.90526e-54 9.45263e-55 4.59213e-55 2.18495e-55 1.01845e-55 4.65174e-56 2.08244e-56 9.13944e-57 3.93334e-57 1.66037e-57 6.8763e-58 2.79459e-58 1.1148e-58 4.36614e-59 1.67927e-59 6.34404e-60 2.3547e-60 8.58867e-61 3.07918e-61 1.08532e-61 3.76177e-62 1.2824e-62 4.3008e-63 1.41924e-63 4.60923e-64 1.47345e-64 4.63474e-65 1.42614e-65 3.99753e-66 0 