# vtk DataFile Version 3.0
Gray-Scott Simulation Output
ASCII
DATASET STRUCTURED_POINTS
DIMENSIONS 256 256 1
SPACING 1.0 1.0 1.0
ORIGIN 0 0 0
POINT_DATA 65536
SCALARS u double
LOOKUP_TABLE default
0 0 0 0 0 0 0 0 0 0 0 0 0 0 0 0 0 0 0 0 0 0 0 0 0 0 0 0 0 0 0 0 0 0 0 0 0 0 0 0 0 0 0 0 0 0 0 0 0 0 0 0 0 0 0 0 0 0 0 0 0 0 0 0 0 0 0 0 0 0 0 0 0 0 0 0 0 0 0 0 0 0 0 0 0 0 0 0 0 0 0 0 0 0 0 0 0 0 0 0 0 0 0 0 0 0 0 0 0 0 0 0 0 0 0 0 0 0 0 0 0 0 0 0 0 0 0 0 0 0 0 0 0 0 0 0 0 0 0 0 0 0 0 0 0 0 0 0 0 0 0 0 0 0 0 0 0 0 0 0 0 0 0 0 0 0 0 0 0 0 0 0 0 0 0 0 0 0 0 0 0 0 0 0 0 0 0 0 0 0 0 0 0 0 0 0 0 0 0 0 0 0 0 0 0 0 0 0 0 0 0 0 0 0 0 0 0 0 0 0 0 0 0 0 0 0 0 0 0 0 0 0 0 0 0 0 0 0 0 0 0 0 0 0 0 0 0 0 0 0 0 0 0 0 0 0 
0 1.11111e-130 1.05301e-129 9.77123e-129 8.97279e-128 8.15413e-127 7.3326e-126 6.52415e-125 5.74291e-124 5.00076e-123 4.30716e-122 3.669e-121 3.09071e-120 2.5744e-119 2.12006e-118 1.72593e-117 1.38883e-116 1.10452e-115 8.68044e-115 6.74058e-114 5.1711e-113 3.91869e-112 2.933e-111 2.16787e-110 1.58214e-109 1.13994e-108 8.10736e-108 5.69077e-107 3.94173e-106 2.69376e-105 1.81599e-104 1.20748e-103 7.91735e-103 5.11845e-102 3.26194e-101 2.04885e-100 1.26812e-99 7.73285e-99 4.64473e-98 2.74748e-97 1.60017e-96 9.17415e-96 5.17645e-95 2.87387e-94 1.56952e-93 8.42996e-93 4.4518e-92 2.31092e-91 1.17885e-90 5.90797e-90 2.90805e-89 1.40548e-88 6.66771e-88 3.10403e-87 1.41753e-86 6.34833e-86 2.78714e-85 1.19917e-84 5.05438e-84 2.08624e-83 8.42954e-83 3.33286e-82 1.28892e-81 4.87365e-81 1.801e-80 6.50144e-80 2.29164e-79 7.88347e-79 2.64554e-78 8.656e-78 2.75997e-77 8.57129e-77 2.59122e-76 7.62145e-76 2.1797e-75 6.05794e-75 1.63517e-74 4.28398e-74 1.08869e-73 2.68202e-73 6.40095e-73 1.47902e-72 3.30656e-72 7.14784e-72 1.49316e-71 3.01236e-71 5.86592e-71 1.10196e-70 1.99615e-70 3.48535e-70 5.86401e-70 9.50517e-70 1.48431e-69 2.23329e-69 3.23878e-69 4.52999e-69 6.11626e-69 7.98166e-69 1.00837e-68 1.23578e-68 1.4726e-68 1.71084e-68 1.94339e-68 2.16473e-68 2.37104e-68 2.55998e-68 2.73011e-68 2.88038e-68 3.00986e-68 3.11762e-68 3.20292e-68 3.26532e-68 3.30495e-68 3.32256e-68 3.31975e-68 3.29899e-68 3.26361e-68 3.21761e-68 3.16516e-68 3.10991e-68 3.05436e-68 2.9994e-68 2.94442e-68 2.88784e-68 2.82813e-68 2.76467e-68 2.69846e-68 2.63203e-68 2.56885e-68 2.51226e-68 2.4645e-68 2.42614e-68 2.39624e-68 2.37309e-68 2.35531e-68 2.34286e-68 2.33748e-68 2.34247e-68 2.36173e-68 2.3985e-68 2.45399e-68 2.52654e-68 2.61132e-68 2.70073e-68 2.78533e-68 2.85518e-68 2.90118e-68 2.91654e-68 2.89779e-68 2.84559e-68 2.7648e-68 2.66401e-68 2.55437e-68 2.44785e-68 2.35536e-68 2.28494e-68 2.24059e-68 2.22194e-68 2.2249e-68 2.24297e-68 2.26893e-68 2.29634e-68 2.32047e-68 2.33859e-68 2.34954e-68 2.35317e-68 2.34965e-68 2.3392e-68 2.32203e-68 2.29863e-68 2.27009e-68 2.23841e-68 2.20666e-68 2.17872e-68 2.15894e-68 2.15132e-68 2.1587e-68 2.18206e-68 2.22012e-68 2.26965e-68 2.32633e-68 2.38595e-68 2.44574e-68 2.50509e-68 2.56563e-68 2.63048e-68 2.70296e-68 2.78509e-68 2.87641e-68 2.9733e-68 3.0689e-68 3.15362e-68 3.21607e-68 3.2443e-68 3.2273e-68 3.15646e-68 3.0271e-68 2.83944e-68 2.59914e-68 2.31694e-68 2.00759e-68 1.68803e-68 1.37525e-68 1.08422e-68 8.26237e-69 6.08064e-69 4.31852e-69 2.95819e-69 1.95371e-69 1.24378e-69 7.63226e-70 4.51452e-70 2.57452e-70 1.41588e-70 7.51199e-71 3.84652e-71 1.90183e-71 9.08431e-72 4.19441e-72 1.87309e-72 8.09497e-73 3.38768e-73 1.37369e-73 5.40053e-74 2.05974e-74 7.62573e-75 2.7422e-75 9.58348e-76 3.25688e-76 1.07692e-76 3.46657e-77 1.08691e-77 3.32112e-78 9.8946e-79 2.87573e-79 8.15728e-80 2.25939e-80 6.11338e-81 1.61663e-81 4.17985e-82 1.0571e-82 2.61605e-83 6.33757e-84 1.50353e-84 3.49437e-85 7.95886e-86 1.77708e-86 3.89119e-87 8.35831e-88 1.76178e-88 3.64515e-89 7.4052e-90 1.47749e-90 2.89278e-91 5.38278e-92 0 
0 1.05227e-129 9.96928e-129 9.24779e-128 8.48937e-127 7.71233e-126 6.93309e-125 6.16672e-124 5.42655e-123 4.72379e-122 4.06732e-121 3.46361e-120 2.91678e-119 2.42876e-118 1.9995e-117 1.62729e-116 1.30905e-115 1.04076e-114 8.17685e-114 6.34761e-113 4.86817e-112 3.68803e-111 2.75954e-110 2.03906e-109 1.4877e-108 1.07158e-107 7.619e-107 5.34644e-106 3.70218e-105 2.52933e-104 1.70467e-103 1.13314e-102 7.42788e-102 4.8007e-101 3.05861e-100 1.92063e-99 1.18844e-98 7.24506e-98 4.35061e-97 2.57283e-96 1.49808e-95 8.58664e-95 4.84375e-94 2.6885e-93 1.46792e-92 7.8824e-92 4.16166e-91 2.1598e-90 1.10151e-89 5.51912e-89 2.71605e-88 1.3124e-87 6.22477e-87 2.89721e-86 1.32281e-85 5.92294e-85 2.59986e-84 1.11837e-83 4.71295e-83 1.94495e-82 7.85723e-82 3.10603e-81 1.201e-80 4.54044e-80 1.67759e-79 6.055e-79 2.13395e-78 7.33996e-78 2.4628e-77 8.05702e-77 2.56865e-76 7.97615e-76 2.41102e-75 7.09063e-75 2.02767e-74 5.63485e-74 1.52083e-73 3.98404e-73 1.01238e-72 2.49384e-72 5.95141e-72 1.37506e-71 3.07394e-71 6.64464e-71 1.38797e-70 2.80003e-70 5.45223e-70 1.02421e-69 1.85525e-69 3.23924e-69 5.44983e-69 8.83363e-69 1.37942e-68 2.07545e-68 3.00984e-68 4.20972e-68 5.68378e-68 7.41718e-68 9.37044e-68 1.14834e-67 1.36836e-67 1.58967e-67 1.80567e-67 2.0112e-67 2.20274e-67 2.37809e-67 2.53593e-67 2.67531e-67 2.79536e-67 2.89525e-67 2.97429e-67 3.03211e-67 3.06881e-67 3.08511e-67 3.08249e-67 3.06323e-67 3.03045e-67 2.98782e-67 2.93923e-67 2.88804e-67 2.83657e-67 2.78564e-67 2.73468e-67 2.68225e-67 2.62688e-67 2.56805e-67 2.50666e-67 2.44508e-67 2.3865e-67 2.33404e-67 2.28975e-67 2.2542e-67 2.22649e-67 2.20506e-67 2.18862e-67 2.17712e-67 2.17218e-67 2.17686e-67 2.19477e-67 2.22889e-67 2.28036e-67 2.34764e-67 2.42623e-67 2.50909e-67 2.5875e-67 2.6522e-67 2.6948e-67 2.70898e-67 2.69155e-67 2.6431e-67 2.56816e-67 2.47468e-67 2.37299e-67 2.27422e-67 2.18846e-67 2.12316e-67 2.08204e-67 2.06477e-67 2.06754e-67 2.08433e-67 2.10844e-67 2.1339e-67 2.15632e-67 2.17316e-67 2.18336e-67 2.18675e-67 2.18353e-67 2.17386e-67 2.15795e-67 2.13625e-67 2.10976e-67 2.08035e-67 2.05084e-67 2.02486e-67 2.00642e-67 1.99924e-67 2.00598e-67 2.02754e-67 2.06274e-67 2.1086e-67 2.1611e-67 2.21636e-67 2.27179e-67 2.32683e-67 2.38298e-67 2.44313e-67 2.51036e-67 2.58652e-67 2.67121e-67 2.76104e-67 2.84966e-67 2.92818e-67 2.98603e-67 3.01213e-67 2.99627e-67 2.93047e-67 2.81036e-67 2.63617e-67 2.41312e-67 2.15118e-67 1.86402e-67 1.56738e-67 1.27701e-67 1.00681e-67 7.67288e-68 5.64708e-68 4.0108e-68 2.74754e-68 1.81468e-68 1.15534e-68 7.08992e-69 4.19396e-69 2.39186e-69 1.3155e-69 6.97991e-70 3.57431e-70 1.76737e-70 8.44271e-71 3.89848e-71 1.74109e-71 7.52516e-72 3.14952e-72 1.27724e-72 5.02188e-73 1.91554e-73 7.09265e-74 2.55081e-74 8.91571e-75 3.03034e-75 1.00214e-75 3.22633e-76 1.01173e-76 3.09186e-77 9.21299e-78 2.67806e-78 7.5978e-79 2.10478e-79 5.69604e-80 1.50653e-80 3.89591e-81 9.8547e-82 2.43926e-82 5.91044e-83 1.40247e-83 3.26017e-84 7.42699e-85 1.65867e-85 3.6327e-86 7.80478e-87 1.64547e-87 3.40527e-88 6.91948e-89 1.3809e-89 2.70431e-90 5.03319e-91 0 
0 9.75711e-129 9.24096e-128 8.56935e-127 7.86398e-126 7.14184e-125 6.41814e-124 5.70684e-123 5.02024e-122 4.36869e-121 3.76036e-120 3.20118e-119 2.69493e-118 2.24332e-117 1.84626e-116 1.5021e-115 1.20797e-114 9.60093e-114 7.54076e-113 5.85203e-112 4.48673e-111 3.39802e-110 2.54178e-109 1.87759e-108 1.36948e-107 9.86142e-107 7.00946e-106 4.91728e-105 3.40402e-104 2.32496e-103 1.56649e-102 1.04099e-101 6.82194e-101 4.40785e-100 2.80755e-99 1.7625e-98 1.0903e-97 6.64499e-97 3.98922e-96 2.3585e-95 1.37292e-94 7.86729e-94 4.43684e-93 2.46203e-92 1.34394e-91 7.21492e-91 3.80834e-90 1.97597e-89 1.00752e-88 5.04705e-88 2.48318e-87 1.19961e-86 5.68859e-86 2.6471e-85 1.20836e-84 5.40938e-84 2.37396e-83 1.021e-82 4.3018e-82 1.77495e-81 7.16916e-81 2.83353e-80 1.09544e-79 4.1407e-79 1.52965e-78 5.52019e-78 1.94518e-77 6.68969e-77 2.2443e-76 7.34124e-76 2.34016e-75 7.26575e-75 2.19603e-74 6.45765e-74 1.84647e-73 5.1308e-73 1.38466e-72 3.62702e-72 9.21587e-72 2.27001e-71 5.41689e-71 1.25148e-70 2.79753e-70 6.04682e-70 1.26304e-69 2.54789e-69 4.96109e-69 9.31918e-69 1.68803e-68 2.94722e-68 4.95842e-68 8.03697e-68 1.255e-67 1.88823e-67 2.7383e-67 3.8299e-67 5.17091e-67 6.7478e-67 8.52464e-67 1.04466e-66 1.24478e-66 1.44605e-66 1.64245e-66 1.82929e-66 2.00336e-66 2.16267e-66 2.30602e-66 2.43257e-66 2.54153e-66 2.63217e-66 2.70387e-66 2.7563e-66 2.78957e-66 2.80434e-66 2.80195e-66 2.78447e-66 2.75472e-66 2.71606e-66 2.67199e-66 2.62556e-66 2.57888e-66 2.53269e-66 2.48646e-66 2.43888e-66 2.38864e-66 2.33525e-66 2.27954e-66 2.22364e-66 2.17048e-66 2.12287e-66 2.08268e-66 2.05042e-66 2.02529e-66 2.00587e-66 1.99098e-66 1.98059e-66 1.97616e-66 1.98045e-66 1.99675e-66 2.02775e-66 2.07449e-66 2.13555e-66 2.20687e-66 2.28205e-66 2.35317e-66 2.41184e-66 2.45046e-66 2.46327e-66 2.44741e-66 2.40339e-66 2.33533e-66 2.25046e-66 2.15815e-66 2.06849e-66 1.99064e-66 1.93138e-66 1.89407e-66 1.87841e-66 1.88095e-66 1.89622e-66 1.91814e-66 1.94128e-66 1.96168e-66 1.977e-66 1.9863e-66 1.98942e-66 1.98651e-66 1.97776e-66 1.96333e-66 1.94363e-66 1.91957e-66 1.89284e-66 1.86599e-66 1.84233e-66 1.82549e-66 1.81888e-66 1.8249e-66 1.84437e-66 1.87624e-66 1.9178e-66 1.96541e-66 2.01554e-66 2.06585e-66 2.11581e-66 2.16679e-66 2.22141e-66 2.28244e-66 2.35159e-66 2.42846e-66 2.50999e-66 2.59041e-66 2.66164e-66 2.71409e-66 2.73772e-66 2.72323e-66 2.66339e-66 2.55423e-66 2.39594e-66 2.19326e-66 1.95524e-66 1.6943e-66 1.42473e-66 1.16084e-66 9.15264e-67 6.97552e-67 5.13409e-67 3.64664e-67 2.4982e-67 1.65008e-67 1.0506e-67 6.44752e-68 3.81417e-68 2.17538e-68 1.19651e-68 6.34897e-69 3.25143e-69 1.60783e-69 7.68115e-70 3.5471e-70 1.58429e-70 6.84805e-71 2.86639e-71 1.16253e-71 4.57134e-72 1.74387e-72 6.45773e-73 2.32274e-73 8.11954e-74 2.76008e-74 9.12887e-75 2.93938e-75 9.21876e-76 2.81769e-76 8.39733e-77 2.44135e-77 6.92736e-78 1.91937e-78 5.19518e-79 1.3743e-79 3.55461e-80 8.99307e-81 2.22641e-81 5.39576e-82 1.2806e-82 2.97748e-83 6.7844e-84 1.51548e-84 3.31982e-85 7.13413e-86 1.50442e-86 3.11407e-87 6.32923e-88 1.2634e-88 2.47479e-89 4.60706e-90 0 
0 8.95307e-128 8.47671e-127 7.85805e-126 7.20887e-125 6.54475e-124 5.87964e-123 5.22632e-122 4.59605e-121 3.99827e-120 3.44042e-119 2.92789e-118 2.46408e-117 2.05051e-116 1.68704e-115 1.37213e-114 1.10311e-113 8.76479e-113 6.88193e-112 5.33911e-111 4.09223e-110 3.09832e-109 2.3169e-108 1.71097e-107 1.24758e-106 8.98099e-106 6.38179e-105 4.47566e-104 3.09742e-103 2.11495e-102 1.42458e-101 9.4643e-101 6.20051e-100 4.00523e-99 2.5504e-98 1.60064e-97 9.89906e-97 6.03154e-96 3.62e-95 2.13966e-94 1.24521e-93 7.13367e-93 4.02211e-92 2.23134e-91 1.21772e-90 6.53575e-90 3.44903e-89 1.78913e-88 9.12046e-88 4.56775e-87 2.24686e-86 1.08521e-85 5.14502e-85 2.39366e-84 1.09245e-83 4.88951e-83 2.14539e-82 9.22521e-82 3.88615e-81 1.60316e-80 6.47415e-80 2.5584e-79 9.88915e-79 3.73743e-78 1.38046e-77 4.98105e-77 1.75495e-76 6.03463e-76 2.02427e-75 6.62065e-75 2.1102e-74 6.55102e-74 1.97979e-73 5.82118e-73 1.66432e-72 4.62422e-72 1.24784e-71 3.26838e-71 8.30399e-71 2.04527e-70 4.88028e-70 1.12744e-69 2.52013e-69 5.44698e-69 1.1377e-68 2.29497e-68 4.46849e-68 8.39363e-68 1.52035e-67 2.6544e-67 4.46572e-67 7.23829e-67 1.13027e-66 1.70056e-66 2.46612e-66 3.44919e-66 4.65685e-66 6.0769e-66 7.67695e-66 9.40761e-66 1.12094e-65 1.30213e-65 1.4789e-65 1.64704e-65 1.80363e-65 1.9469e-65 2.07578e-65 2.18951e-65 2.2874e-65 2.36881e-65 2.43319e-65 2.48026e-65 2.51011e-65 2.52335e-65 2.52119e-65 2.50549e-65 2.47878e-65 2.44407e-65 2.4045e-65 2.36282e-65 2.32091e-65 2.27944e-65 2.23793e-65 2.19519e-65 2.15007e-65 2.1021e-65 2.05205e-65 2.00184e-65 1.95408e-65 1.91131e-65 1.87521e-65 1.84624e-65 1.82368e-65 1.80625e-65 1.79291e-65 1.78361e-65 1.77967e-65 1.78357e-65 1.79826e-65 1.82614e-65 1.86815e-65 1.92301e-65 1.98707e-65 2.05459e-65 2.11844e-65 2.17111e-65 2.20576e-65 2.21722e-65 2.20292e-65 2.16334e-65 2.10216e-65 2.02589e-65 1.94294e-65 1.86237e-65 1.79243e-65 1.73919e-65 1.70567e-65 1.69162e-65 1.69393e-65 1.70768e-65 1.72741e-65 1.74824e-65 1.7666e-65 1.78041e-65 1.78879e-65 1.79162e-65 1.78904e-65 1.78119e-65 1.76824e-65 1.75054e-65 1.7289e-65 1.70484e-65 1.68067e-65 1.65934e-65 1.64413e-65 1.6381e-65 1.64342e-65 1.66083e-65 1.68939e-65 1.72667e-65 1.7694e-65 1.81442e-65 1.85961e-65 1.9045e-65 1.95032e-65 1.99941e-65 2.05426e-65 2.1164e-65 2.18547e-65 2.25871e-65 2.33094e-65 2.3949e-65 2.44199e-65 2.46315e-65 2.45005e-65 2.39618e-65 2.29797e-65 2.15559e-65 1.97328e-65 1.75919e-65 1.52448e-65 1.28197e-65 1.04457e-65 8.23632e-66 6.27746e-66 4.62053e-66 3.28202e-66 2.24852e-66 1.48524e-66 9.45693e-67 5.804e-67 3.43366e-67 1.95846e-67 1.07727e-67 5.71654e-68 2.92773e-68 1.44785e-68 6.91736e-69 3.19462e-69 1.42697e-69 6.16853e-70 2.58219e-70 1.04736e-70 4.11885e-71 1.57141e-71 5.81973e-72 2.09349e-72 7.31902e-73 2.48826e-73 8.23088e-74 2.65059e-74 8.31417e-75 2.54157e-75 7.57554e-76 2.20277e-76 6.25137e-77 1.73236e-77 4.68977e-78 1.24082e-78 3.20993e-79 8.12252e-80 2.01126e-80 4.87528e-81 1.1573e-81 2.69133e-82 6.13365e-83 1.37041e-83 3.00265e-84 6.45396e-85 1.36128e-85 2.81843e-86 5.72965e-87 1.14398e-87 2.24139e-88 4.17349e-89 0 
0 8.12995e-127 7.69491e-126 7.13097e-125 6.53971e-124 5.93531e-123 5.3304e-122 4.73658e-121 4.16404e-120 3.62129e-119 3.11504e-118 2.65014e-117 2.22962e-116 1.85482e-115 1.52557e-114 1.24041e-113 9.96907e-113 7.91853e-112 6.21557e-111 4.82067e-110 3.69376e-109 2.79579e-108 2.09004e-107 1.54299e-106 1.12476e-105 8.0945e-105 5.7502e-104 4.03155e-103 2.78928e-102 1.90401e-101 1.28214e-100 8.5156e-100 5.57744e-99 3.60177e-98 2.29288e-97 1.43863e-96 8.89477e-96 5.41821e-95 3.25105e-94 1.92109e-93 1.11773e-92 6.40176e-92 3.60855e-91 2.00143e-90 1.09199e-89 5.85953e-89 3.09146e-88 1.60328e-87 8.17123e-87 4.09144e-86 2.01213e-85 9.71634e-85 4.60559e-84 2.14226e-83 9.77517e-83 4.37424e-82 1.91894e-81 8.24994e-81 3.47468e-80 1.43316e-79 5.78666e-79 2.28635e-78 8.83614e-78 3.33894e-77 1.23309e-76 4.44866e-76 1.56716e-75 5.38817e-75 1.80719e-74 5.90995e-74 1.88346e-73 5.84648e-73 1.76669e-72 5.19409e-72 1.48489e-71 4.12535e-71 1.11313e-70 2.91534e-70 7.40652e-70 1.82411e-69 4.35233e-69 1.00542e-68 2.24729e-68 4.85708e-68 1.01445e-67 2.0463e-67 3.98421e-67 7.48381e-67 1.35553e-66 2.36661e-66 3.98151e-66 6.4534e-66 1.0077e-65 1.51614e-65 2.19867e-65 3.0751e-65 4.15176e-65 5.41772e-65 6.84409e-65 8.3868e-65 9.99273e-65 1.16075e-64 1.31826e-64 1.46803e-64 1.60749e-64 1.73504e-64 1.84973e-64 1.95091e-64 2.03797e-64 2.11034e-64 2.16757e-64 2.20939e-64 2.23591e-64 2.24766e-64 2.24573e-64 2.23176e-64 2.20801e-64 2.17717e-64 2.142e-64 2.10497e-64 2.06772e-64 2.03086e-64 1.99396e-64 1.95597e-64 1.91585e-64 1.87319e-64 1.82868e-64 1.78403e-64 1.74156e-64 1.70353e-64 1.67143e-64 1.64568e-64 1.62563e-64 1.61015e-64 1.59831e-64 1.59008e-64 1.58662e-64 1.59012e-64 1.60322e-64 1.62805e-64 1.66542e-64 1.71421e-64 1.77117e-64 1.83119e-64 1.88795e-64 1.93475e-64 1.96551e-64 1.97567e-64 1.96291e-64 1.92768e-64 1.87324e-64 1.80538e-64 1.7316e-64 1.65993e-64 1.59773e-64 1.55038e-64 1.52058e-64 1.5081e-64 1.51018e-64 1.52243e-64 1.54001e-64 1.55857e-64 1.57494e-64 1.58725e-64 1.59473e-64 1.59728e-64 1.59501e-64 1.58804e-64 1.57653e-64 1.56078e-64 1.54152e-64 1.52009e-64 1.49854e-64 1.4795e-64 1.4659e-64 1.46046e-64 1.46511e-64 1.48052e-64 1.50585e-64 1.53896e-64 1.57693e-64 1.61695e-64 1.65713e-64 1.69706e-64 1.73782e-64 1.7815e-64 1.8303e-64 1.88557e-64 1.947e-64 2.01213e-64 2.07635e-64 2.13321e-64 2.17504e-64 2.19381e-64 2.18208e-64 2.13408e-64 2.04662e-64 1.91983e-64 1.7575e-64 1.56687e-64 1.35787e-64 1.14191e-64 9.30489e-65 7.33715e-65 5.5924e-65 4.11649e-65 2.92413e-65 2.00342e-65 1.32341e-65 8.42686e-66 5.17206e-66 3.05995e-66 1.7454e-66 9.60116e-67 5.09515e-67 2.60964e-67 1.29062e-67 6.16655e-68 2.84807e-68 1.27226e-68 5.50017e-69 2.30259e-69 9.34035e-70 3.67351e-70 1.40164e-70 5.1915e-71 1.8677e-71 6.53035e-72 2.22039e-72 7.34569e-73 2.36583e-73 7.42195e-74 2.26914e-74 6.76447e-75 1.96722e-75 5.58375e-76 1.54759e-76 4.19027e-77 1.10885e-77 2.86902e-78 7.26116e-79 1.7983e-79 4.35988e-80 1.03515e-80 2.40775e-81 5.48845e-82 1.2265e-82 2.68791e-83 5.77868e-84 1.21912e-84 2.52464e-85 5.13355e-86 1.0252e-86 2.00913e-87 3.74183e-88 0 
0 7.30511e-126 6.91199e-125 6.40333e-124 5.8705e-123 5.32621e-122 4.78184e-121 4.24777e-120 3.73311e-119 3.24549e-118 2.7909e-117 2.37363e-116 1.99636e-115 1.66025e-114 1.36511e-113 1.1096e-112 8.91505e-112 7.07915e-111 5.55502e-110 4.30706e-109 3.29922e-108 2.49642e-107 1.8657e-106 1.37696e-105 1.00344e-104 7.21931e-104 5.127e-103 3.5936e-102 2.48557e-101 1.69622e-100 1.1419e-99 7.58207e-99 4.96465e-98 3.20518e-97 2.03986e-96 1.27954e-95 7.90909e-95 4.81654e-94 2.8893e-93 1.7069e-92 9.92862e-92 5.68516e-91 3.20384e-90 1.77654e-89 9.6906e-89 5.19869e-88 2.74218e-87 1.42182e-86 7.24478e-86 3.62677e-85 1.78323e-84 8.60921e-84 4.07997e-83 1.89739e-82 8.65614e-82 3.87276e-81 1.69863e-80 7.30144e-80 3.07466e-79 1.26795e-78 5.11874e-78 2.02212e-77 7.81377e-77 2.95218e-76 1.0901e-75 3.93224e-75 1.38505e-74 4.76145e-74 1.59679e-73 5.2213e-73 1.66381e-72 5.16414e-72 1.56035e-71 4.58703e-71 1.31123e-70 3.64261e-70 9.82806e-70 2.57383e-69 6.53852e-69 1.61025e-68 3.84186e-68 8.87465e-68 1.98355e-67 4.28693e-67 8.95347e-67 1.806e-66 3.51628e-66 6.60478e-66 1.1963e-65 2.0886e-65 3.51376e-65 5.69524e-65 8.89314e-65 1.33801e-64 1.94035e-64 2.71381e-64 3.66394e-64 4.78111e-64 6.03978e-64 7.40101e-64 8.81788e-64 1.02423e-63 1.16315e-63 1.29522e-63 1.41815e-63 1.53054e-63 1.63158e-63 1.72067e-63 1.79731e-63 1.861e-63 1.91134e-63 1.94813e-63 1.97144e-63 1.98177e-63 1.98005e-63 1.96776e-63 1.94686e-63 1.91972e-63 1.88879e-63 1.85622e-63 1.82345e-63 1.79103e-63 1.75856e-63 1.72513e-63 1.68982e-63 1.65228e-63 1.6131e-63 1.5738e-63 1.53641e-63 1.50294e-63 1.47469e-63 1.45203e-63 1.4344e-63 1.42079e-63 1.4104e-63 1.40318e-63 1.40017e-63 1.40329e-63 1.41484e-63 1.43672e-63 1.46963e-63 1.51258e-63 1.56271e-63 1.61553e-63 1.66546e-63 1.70662e-63 1.73367e-63 1.74257e-63 1.73131e-63 1.70026e-63 1.65231e-63 1.59256e-63 1.52759e-63 1.4645e-63 1.40974e-63 1.36806e-63 1.34184e-63 1.33087e-63 1.33271e-63 1.34353e-63 1.35903e-63 1.3754e-63 1.38984e-63 1.40071e-63 1.40732e-63 1.40959e-63 1.40761e-63 1.40149e-63 1.39136e-63 1.37749e-63 1.36052e-63 1.34163e-63 1.32261e-63 1.30579e-63 1.29376e-63 1.28889e-63 1.29291e-63 1.30641e-63 1.32865e-63 1.35775e-63 1.39115e-63 1.42636e-63 1.46173e-63 1.49689e-63 1.53278e-63 1.57124e-63 1.61421e-63 1.66287e-63 1.71695e-63 1.77428e-63 1.8308e-63 1.88083e-63 1.91762e-63 1.93409e-63 1.9237e-63 1.88136e-63 1.80425e-63 1.6925e-63 1.54943e-63 1.38141e-63 1.19719e-63 1.00683e-63 8.20457e-64 6.46981e-64 4.93154e-64 3.6302e-64 2.57882e-64 1.76692e-64 1.16723e-64 7.43271e-65 4.56209e-65 2.69919e-65 1.53969e-65 8.46999e-66 4.49508e-66 2.30241e-66 1.13874e-66 5.44119e-67 2.51321e-67 1.12275e-67 4.85415e-68 2.03229e-68 8.24453e-69 3.2428e-69 1.23741e-69 4.58365e-70 1.64918e-70 5.76691e-71 1.96103e-71 6.4884e-72 2.08998e-72 6.55737e-73 2.00507e-73 5.97808e-74 1.73877e-74 4.93605e-75 1.36829e-75 3.70536e-76 9.80689e-77 2.53785e-77 6.42411e-78 1.59128e-78 3.85867e-79 9.16323e-80 2.13176e-80 4.86029e-81 1.08635e-81 2.38124e-82 5.12045e-83 1.08048e-83 2.23803e-84 4.55177e-85 9.09219e-86 1.78224e-86 3.31999e-87 0 
0 6.49448e-125 6.14302e-124 5.6891e-123 5.21401e-122 4.72906e-121 4.24436e-120 3.76911e-119 3.31139e-118 2.87795e-117 2.47405e-116 2.10349e-115 1.76861e-114 1.47039e-113 1.20862e-112 9.82106e-112 7.88826e-111 6.26191e-110 4.91225e-109 3.80755e-108 2.91572e-107 2.20559e-106 1.64786e-105 1.21583e-104 8.85766e-104 6.37085e-103 4.52315e-102 3.16945e-101 2.19159e-100 1.49518e-99 1.00628e-98 6.67977e-98 4.37265e-97 2.82224e-96 1.79567e-95 1.12607e-94 6.95867e-94 4.23666e-93 2.5408e-92 1.50064e-91 8.72674e-91 4.99574e-90 2.81465e-89 1.56036e-88 8.50943e-88 4.56398e-87 2.40684e-86 1.24767e-85 6.35605e-85 3.18119e-84 1.56382e-83 7.54838e-83 3.57652e-82 1.66293e-81 7.58508e-81 3.39293e-80 1.4879e-79 6.39453e-79 2.69229e-78 1.11009e-77 4.48071e-77 1.7698e-76 6.83773e-76 2.58304e-75 9.53662e-75 3.43962e-74 1.21138e-73 4.16392e-73 1.39625e-72 4.56504e-72 1.45454e-71 4.51417e-71 1.36384e-70 4.009e-70 1.14591e-69 3.18312e-69 8.58775e-69 2.24888e-68 5.71271e-68 1.40681e-67 3.35634e-67 7.75283e-67 1.73277e-66 3.74482e-66 7.82108e-66 1.57756e-65 3.07147e-65 5.76923e-65 1.04495e-64 1.82436e-64 3.06922e-64 4.97472e-64 7.76806e-64 1.16874e-63 1.69488e-63 2.37048e-63 3.2004e-63 4.17619e-63 5.27552e-63 6.46434e-63 7.70163e-63 8.94534e-63 1.01581e-62 1.13106e-62 1.23831e-62 1.33634e-62 1.42442e-62 1.50207e-62 1.56884e-62 1.62431e-62 1.66815e-62 1.70017e-62 1.72045e-62 1.72943e-62 1.72792e-62 1.71721e-62 1.69902e-62 1.67539e-62 1.64846e-62 1.6201e-62 1.59158e-62 1.56335e-62 1.53508e-62 1.50596e-62 1.4752e-62 1.4425e-62 1.40837e-62 1.37413e-62 1.34157e-62 1.3124e-62 1.2878e-62 1.26807e-62 1.25272e-62 1.24088e-62 1.23185e-62 1.22559e-62 1.22299e-62 1.22574e-62 1.23583e-62 1.25492e-62 1.2836e-62 1.32102e-62 1.36469e-62 1.41068e-62 1.45415e-62 1.48999e-62 1.51352e-62 1.52124e-62 1.5114e-62 1.48432e-62 1.44253e-62 1.39045e-62 1.33384e-62 1.27886e-62 1.23114e-62 1.19484e-62 1.172e-62 1.16246e-62 1.16408e-62 1.17353e-62 1.18707e-62 1.20136e-62 1.21396e-62 1.22345e-62 1.22924e-62 1.23123e-62 1.22952e-62 1.22421e-62 1.21539e-62 1.2033e-62 1.1885e-62 1.17201e-62 1.1554e-62 1.1407e-62 1.13015e-62 1.12585e-62 1.12929e-62 1.14099e-62 1.16032e-62 1.18564e-62 1.21471e-62 1.24537e-62 1.27618e-62 1.30682e-62 1.3381e-62 1.37162e-62 1.40907e-62 1.45147e-62 1.49859e-62 1.54853e-62 1.59776e-62 1.64133e-62 1.67334e-62 1.68765e-62 1.67854e-62 1.64158e-62 1.5743e-62 1.47681e-62 1.35201e-62 1.20544e-62 1.04472e-62 8.78645e-63 7.1603e-63 5.6466e-63 4.30426e-63 3.16859e-63 2.251e-63 1.54237e-63 1.01893e-63 6.48866e-64 3.9828e-64 2.35655e-64 1.34429e-64 7.3954e-65 3.92496e-65 2.01048e-65 9.94407e-66 4.75176e-66 2.19489e-66 9.80601e-67 4.23986e-67 1.77522e-67 7.2022e-68 2.83304e-68 1.08114e-68 4.00514e-69 1.44117e-69 5.04002e-70 1.71403e-70 5.67177e-71 1.82714e-71 5.73341e-72 1.75334e-72 5.22825e-73 1.52089e-73 4.31813e-74 1.19717e-74 3.24247e-75 8.58312e-76 2.22152e-76 5.62432e-77 1.39341e-77 3.37946e-78 8.0267e-79 1.86771e-79 4.25907e-80 9.52153e-81 2.08751e-81 4.48974e-82 9.47593e-83 1.96319e-83 3.99366e-84 7.97914e-85 1.56441e-85 2.91483e-86 0 
0 5.71211e-124 5.40127e-123 5.00054e-122 4.58147e-121 4.15402e-120 3.72706e-119 3.30868e-118 2.90595e-117 2.52478e-116 2.16977e-115 1.84421e-114 1.55012e-113 1.28834e-112 1.05866e-111 8.59987e-111 6.90531e-110 5.47996e-109 4.29755e-108 3.33009e-107 2.54935e-106 1.92787e-105 1.43995e-104 1.06212e-103 7.73564e-103 5.56225e-102 3.94795e-101 2.76562e-100 1.91182e-99 1.30395e-98 8.77342e-98 5.82229e-97 3.81031e-96 2.45863e-95 1.56392e-94 9.80482e-94 6.05744e-93 3.68703e-92 2.21062e-91 1.30531e-90 7.58898e-90 4.34338e-89 2.44652e-88 1.35597e-87 7.39307e-87 3.96434e-86 2.09016e-85 1.08327e-84 5.51736e-84 2.76085e-83 1.35691e-82 6.54833e-82 3.10208e-81 1.44206e-80 6.57641e-80 2.9412e-79 1.28958e-78 5.54124e-78 2.33265e-77 9.61642e-77 3.88093e-76 1.53267e-75 5.92071e-75 2.23631e-74 8.25541e-74 2.97714e-73 1.04838e-72 3.60321e-72 1.2081e-71 3.94949e-71 1.25829e-70 3.90475e-70 1.17962e-69 3.46722e-69 9.90983e-69 2.75258e-68 7.42577e-68 1.94449e-67 4.93926e-67 1.21629e-66 2.90171e-66 6.70248e-66 1.49798e-65 3.23734e-65 6.76111e-65 1.36375e-64 2.65516e-64 4.98725e-64 9.03317e-64 1.57709e-63 2.65324e-63 4.30049e-63 6.71529e-63 1.01035e-62 1.4652e-62 2.04924e-62 2.76668e-62 3.6102e-62 4.56047e-62 5.58802e-62 6.65734e-62 7.73205e-62 8.77976e-62 9.77524e-62 1.07013e-61 1.15474e-61 1.23074e-61 1.2977e-61 1.35527e-61 1.40309e-61 1.44086e-61 1.46844e-61 1.48591e-61 1.49363e-61 1.49232e-61 1.48309e-61 1.4674e-61 1.44704e-61 1.42384e-61 1.39941e-61 1.37484e-61 1.35051e-61 1.32615e-61 1.30106e-61 1.27454e-61 1.24635e-61 1.21693e-61 1.18741e-61 1.15934e-61 1.1342e-61 1.113e-61 1.09599e-61 1.08277e-61 1.07258e-61 1.06481e-61 1.05943e-61 1.05722e-61 1.05961e-61 1.06834e-61 1.08481e-61 1.10955e-61 1.14181e-61 1.17945e-61 1.21909e-61 1.25655e-61 1.28742e-61 1.30768e-61 1.31431e-61 1.3058e-61 1.28243e-61 1.24637e-61 1.20146e-61 1.15264e-61 1.10523e-61 1.06409e-61 1.03278e-61 1.0131e-61 1.00489e-61 1.00631e-61 1.01447e-61 1.02617e-61 1.03851e-61 1.0494e-61 1.05761e-61 1.06262e-61 1.06436e-61 1.0629e-61 1.05832e-61 1.05072e-61 1.0403e-61 1.02752e-61 1.01328e-61 9.98923e-62 9.86202e-62 9.77057e-62 9.73294e-62 9.76205e-62 9.86244e-62 1.00287e-61 1.02467e-61 1.04971e-61 1.07613e-61 1.1027e-61 1.12911e-61 1.15609e-61 1.185e-61 1.2173e-61 1.25387e-61 1.29449e-61 1.33755e-61 1.37998e-61 1.41753e-61 1.4451e-61 1.4574e-61 1.4495e-61 1.41756e-61 1.35947e-61 1.2753e-61 1.16755e-61 1.04101e-61 9.02257e-62 7.58861e-62 6.18443e-62 4.87725e-62 3.71797e-62 2.73711e-62 1.94455e-62 1.33245e-62 8.80288e-63 5.60596e-63 3.44112e-63 2.03612e-63 1.16154e-63 6.39028e-64 3.39165e-64 1.73737e-64 8.5936e-65 4.10663e-65 1.89699e-65 8.47554e-66 3.6648e-66 1.53454e-66 6.22616e-67 2.44928e-67 9.34763e-68 3.46315e-68 1.24625e-68 4.35876e-69 1.48249e-69 4.9061e-70 1.58065e-70 4.96051e-71 1.51716e-71 4.52456e-72 1.31635e-72 3.73792e-73 1.03646e-73 2.80761e-74 7.43313e-75 1.92418e-75 4.87232e-76 1.20731e-76 2.9286e-77 6.95708e-78 1.61911e-78 3.69288e-79 8.25734e-80 1.8107e-80 3.89517e-81 8.22273e-82 1.70391e-82 3.46696e-83 6.92831e-84 1.35868e-84 2.53204e-85 0 
0 4.96978e-123 4.69784e-122 4.3479e-121 3.98224e-120 3.60954e-119 3.23752e-118 2.87318e-117 2.52267e-116 2.19108e-115 1.8824e-114 1.59946e-113 1.34399e-112 1.11668e-111 9.1732e-111 7.44944e-110 5.97975e-109 4.74403e-108 3.7193e-107 2.88117e-106 2.20502e-105 1.667e-104 1.24474e-103 9.17869e-103 6.68311e-102 4.80408e-101 3.40886e-100 2.38731e-99 1.64985e-98 1.12497e-97 7.56711e-97 5.0204e-96 3.28466e-95 2.11889e-94 1.34746e-93 8.44562e-93 5.2164e-92 3.17431e-91 1.90275e-90 1.12325e-89 6.52889e-89 3.73577e-88 2.10378e-87 1.16574e-86 6.35447e-86 3.40666e-85 1.79574e-84 9.30482e-84 4.73818e-83 2.37047e-82 1.16481e-81 5.62018e-81 2.66188e-80 1.2372e-79 5.64112e-79 2.52246e-78 1.10579e-77 4.75073e-77 1.99955e-76 8.24194e-76 3.32573e-75 1.31322e-74 5.07227e-74 1.9156e-73 7.07058e-73 2.54955e-72 8.97704e-72 3.08501e-71 1.03425e-70 3.38083e-70 1.07702e-69 3.34196e-69 1.00952e-68 2.96707e-68 8.47977e-68 2.35523e-67 6.3535e-67 1.66364e-66 4.22569e-66 1.04054e-65 2.48236e-65 5.73372e-65 1.28144e-64 2.76935e-64 5.78369e-64 1.16659e-63 2.27132e-63 4.26628e-63 7.72736e-63 1.34912e-62 2.26973e-62 3.67893e-62 5.74477e-62 8.64341e-62 1.25346e-61 1.75311e-61 2.36687e-61 3.08847e-61 3.90135e-61 4.78027e-61 5.69481e-61 6.61381e-61 7.50952e-61 8.36036e-61 9.15158e-61 9.87424e-61 1.05231e-60 1.10947e-60 1.15858e-60 1.19936e-60 1.23157e-60 1.25508e-60 1.26996e-60 1.27654e-60 1.27541e-60 1.26753e-60 1.25416e-60 1.2368e-60 1.21701e-60 1.19619e-60 1.17524e-60 1.1545e-60 1.13373e-60 1.11233e-60 1.08971e-60 1.06566e-60 1.04056e-60 1.01538e-60 9.91432e-61 9.69989e-61 9.51903e-61 9.37402e-61 9.26132e-61 9.17451e-61 9.10839e-61 9.06272e-61 9.04404e-61 9.06468e-61 9.13932e-61 9.27996e-61 9.49113e-61 9.7664e-61 1.00875e-60 1.04255e-60 1.07449e-60 1.10081e-60 1.11807e-60 1.1237e-60 1.11642e-60 1.09646e-60 1.06568e-60 1.02735e-60 9.85681e-61 9.4523e-61 9.10126e-61 8.83422e-61 8.66639e-61 8.5964e-61 8.60869e-61 8.67855e-61 8.77852e-61 8.88406e-61 8.97719e-61 9.0474e-61 9.09033e-61 9.10528e-61 9.09294e-61 9.054e-61 8.98919e-61 8.90019e-61 8.79106e-61 8.66933e-61 8.54654e-61 8.43762e-61 8.35915e-61 8.32657e-61 8.35095e-61 8.43617e-61 8.57767e-61 8.76334e-61 8.97681e-61 9.20218e-61 9.42878e-61 9.65418e-61 9.88442e-61 1.01312e-60 1.04068e-60 1.07188e-60 1.10655e-60 1.14328e-60 1.17947e-60 1.21149e-60 1.23499e-60 1.24545e-60 1.23866e-60 1.21136e-60 1.16172e-60 1.08981e-60 9.97761e-61 8.89654e-61 7.71103e-61 6.48579e-61 5.28592e-61 4.16885e-61 3.17809e-61 2.33976e-61 1.66232e-61 1.1391e-61 7.5258e-62 4.79284e-62 2.94209e-62 1.7409e-62 9.93161e-63 5.46409e-63 2.90016e-63 1.48566e-63 7.34883e-64 3.51193e-64 1.62235e-64 7.2488e-65 3.13452e-65 1.31257e-65 5.32585e-66 2.09525e-66 7.99702e-67 2.96299e-67 1.06635e-67 3.72986e-68 1.2687e-68 4.19901e-69 1.35298e-69 4.24647e-70 1.29892e-70 3.87417e-71 1.12727e-71 3.20142e-72 8.87817e-73 2.40529e-73 6.36894e-74 1.64895e-74 4.17604e-75 1.03495e-75 2.51092e-76 5.96588e-77 1.38868e-77 3.16788e-78 7.08475e-79 1.55387e-79 3.34333e-80 7.05921e-81 1.46311e-81 2.97761e-82 5.95168e-83 1.16741e-83 2.17604e-84 0 