# vtk DataFile Version 3.0
Gray-Scott Simulation Output
ASCII
DATASET STRUCTURED_POINTS
DIMENSIONS 256 256 1
SPACING 1.0 1.0 1.0
ORIGIN 0 0 0
POINT_DATA 65536
SCALARS u double
LOOKUP_TABLE default
0 0 0 0 0 0 0 0 0 0 0 0 0 0 0 0 0 0 0 0 0 0 0 0 0 0 0 0 0 0 0 0 0 0 0 0 0 0 0 0 0 0 0 0 0 0 0 0 0 0 0 0 0 0 0 0 0 0 0 0 0 0 0 0 0 0 0 0 0 0 0 0 0 0 0 0 0 0 0 0 0 0 0 0 0 0 0 0 0 0 0 0 0 0 0 0 0 0 0 0 0 0 0 0 0 0 0 0 0 0 0 0 0 0 0 0 0 0 0 0 0 0 0 0 0 0 0 0 0 0 0 0 0 0 0 0 0 0 0 0 0 0 0 0 0 0 0 0 0 0 0 0 0 0 0 0 0 0 0 0 0 0 0 0 0 0 0 0 0 0 0 0 0 0 0 0 0 0 0 0 0 0 0 0 0 0 0 0 0 0 0 0 0 0 0 0 0 0 0 0 0 0 0 0 0 0 0 0 0 0 0 0 0 0 0 0 0 0 0 0 0 0 0 0 0 0 0 0 0 0 0 0 0 0 0 0 0 0 0 0 0 0 0 0 0 0 0 0 0 0 0 0 0 0 0 0 
0 1.29616e-76 4.53603e-76 1.44918e-75 4.55812e-75 1.42103e-74 4.39371e-74 1.34733e-73 4.09744e-73 1.23572e-72 3.6955e-72 1.09583e-71 3.2219e-71 9.39181e-71 2.71412e-70 7.77548e-70 2.20809e-69 6.21539e-69 1.73404e-68 4.79466e-68 1.31383e-67 3.56758e-67 9.59916e-67 2.55911e-66 6.75947e-66 1.76878e-65 4.58502e-65 1.1773e-64 2.99419e-64 7.54202e-64 1.8814e-63 4.64756e-63 1.13682e-62 2.75324e-62 6.60165e-62 1.56705e-61 3.68214e-61 8.56393e-61 1.97136e-60 4.49099e-60 1.01244e-59 2.25845e-59 4.98458e-59 1.0884e-58 2.35103e-58 5.02335e-58 1.0616e-57 2.21882e-57 4.58606e-57 9.37292e-57 1.89405e-56 3.78397e-56 7.47321e-56 1.45892e-55 2.815e-55 5.368e-55 1.01156e-54 1.88356e-54 3.46527e-54 6.29828e-54 1.13083e-53 2.00552e-53 3.51292e-53 6.07696e-53 1.03811e-52 1.75107e-52 2.91629e-52 4.795e-52 7.78296e-52 1.247e-51 1.97207e-51 3.07809e-51 4.74152e-51 7.20782e-51 1.08123e-50 1.60042e-50 2.33743e-50 3.36833e-50 4.78905e-50 6.71792e-50 9.29754e-50 1.26955e-49 1.71035e-49 2.27345e-49 2.98175e-49 3.85891e-49 4.92832e-49 6.21175e-49 7.72789e-49 9.49068e-49 1.15078e-48 1.37794e-48 1.62968e-48 1.90419e-48 2.19876e-48 2.50978e-48 2.83291e-48 3.16322e-48 3.49544e-48 3.8242e-48 4.14429e-48 4.45087e-48 4.73971e-48 5.00731e-48 5.25102e-48 5.46905e-48 5.66047e-48 5.82512e-48 5.9635e-48 6.07668e-48 6.16612e-48 6.23354e-48 6.28086e-48 6.31006e-48 6.3231e-48 6.3219e-48 6.30831e-48 6.28406e-48 6.25081e-48 6.21009e-48 6.16337e-48 6.11204e-48 6.05744e-48 6.00084e-48 5.94349e-48 5.88657e-48 5.83125e-48 5.77862e-48 5.72974e-48 5.68555e-48 5.64693e-48 5.61459e-48 5.5891e-48 5.57084e-48 5.55994e-48 5.55627e-48 5.55945e-48 5.56878e-48 5.58328e-48 5.60174e-48 5.62271e-48 5.64459e-48 5.66573e-48 5.68452e-48 5.69946e-48 5.70931e-48 5.71314e-48 5.7104e-48 5.70099e-48 5.68521e-48 5.66375e-48 5.63764e-48 5.60813e-48 5.57658e-48 5.54436e-48 5.51273e-48 5.48274e-48 5.45517e-48 5.43052e-48 5.40894e-48 5.39034e-48 5.37438e-48 5.36059e-48 5.34842e-48 5.33738e-48 5.32706e-48 5.3172e-48 5.30778e-48 5.299e-48 5.29128e-48 5.28526e-48 5.28172e-48 5.28157e-48 5.28574e-48 5.29516e-48 5.31065e-48 5.33292e-48 5.36245e-48 5.3995e-48 5.44403e-48 5.4957e-48 5.55381e-48 5.61728e-48 5.68464e-48 5.75396e-48 5.82286e-48 5.8885e-48 5.94761e-48 5.99649e-48 6.03112e-48 6.04731e-48 6.0408e-48 6.00749e-48 5.94371e-48 5.84638e-48 5.71333e-48 5.54345e-48 5.33691e-48 5.0952e-48 4.82118e-48 4.51901e-48 4.19394e-48 3.85213e-48 3.50031e-48 3.14543e-48 2.79434e-48 2.45345e-48 2.12843e-48 1.824e-48 1.54377e-48 1.29019e-48 1.06457e-48 8.67118e-49 6.9714e-49 5.53167e-49 4.33164e-49 3.34718e-49 2.5522e-49 1.92019e-49 1.42546e-49 1.04411e-49 7.54585e-50 5.38084e-50 3.78595e-50 2.62842e-50 1.80062e-50 1.21723e-50 8.12015e-51 5.34587e-51 3.47343e-51 2.22746e-51 1.40993e-51 8.80954e-52 5.43381e-52 3.30889e-52 1.98939e-52 1.181e-52 6.92321e-53 4.00799e-53 2.29162e-53 1.29418e-53 7.21961e-54 3.9787e-54 2.16627e-54 1.16538e-54 6.19499e-55 3.2544e-55 1.68965e-55 8.67055e-56 4.39782e-56 2.20442e-56 1.09082e-56 5.30137e-57 2.46984e-57 9.6861e-58 0 
0 4.53061e-76 1.58582e-75 5.0675e-75 1.59425e-74 4.97136e-74 1.53748e-73 4.71584e-73 1.43452e-72 4.32737e-72 1.29446e-71 3.83954e-71 1.12918e-70 3.29248e-70 9.51758e-70 2.72741e-69 7.74761e-69 2.18148e-68 6.08802e-68 1.68388e-67 4.61564e-67 1.25374e-66 3.37452e-66 8.99944e-66 2.37787e-65 6.22445e-65 1.61408e-64 4.14598e-64 1.05482e-63 2.65798e-63 6.63298e-63 1.63916e-62 4.01105e-62 9.71816e-62 2.33114e-61 5.53574e-61 1.30129e-60 3.02781e-60 6.97277e-60 1.58916e-59 3.58414e-59 7.99864e-59 1.76615e-58 3.85819e-58 8.33772e-58 1.7823e-57 3.76831e-57 7.87967e-57 1.6294e-56 3.33169e-56 6.7357e-56 1.3463e-55 2.66015e-55 5.19556e-55 1.00296e-54 1.91346e-54 3.60746e-54 6.72032e-54 1.23693e-53 2.2492e-53 4.04016e-53 7.16834e-53 1.25617e-52 2.17397e-52 3.7153e-52 6.26948e-52 1.04455e-51 1.71813e-51 2.78982e-51 4.4715e-51 7.07388e-51 1.10448e-50 1.70188e-50 2.58785e-50 3.883e-50 5.74898e-50 8.39828e-50 1.21046e-49 1.7213e-49 2.41492e-49 3.34259e-49 4.56455e-49 6.14968e-49 8.17443e-49 1.07209e-48 1.38738e-48 1.77168e-48 2.23275e-48 2.7772e-48 3.40994e-48 4.13359e-48 4.94801e-48 5.84991e-48 6.83264e-48 7.88621e-48 8.9975e-48 1.01507e-47 1.13281e-47 1.25107e-47 1.36791e-47 1.48148e-47 1.59006e-47 1.69215e-47 1.78651e-47 1.87225e-47 1.94874e-47 2.0157e-47 2.07309e-47 2.12115e-47 2.16027e-47 2.19101e-47 2.21401e-47 2.22995e-47 2.23956e-47 2.24354e-47 2.24257e-47 2.2373e-47 2.22834e-47 2.21628e-47 2.20164e-47 2.18493e-47 2.16665e-47 2.14724e-47 2.12717e-47 2.10685e-47 2.08671e-47 2.06714e-47 2.04854e-47 2.03126e-47 2.01566e-47 2.00202e-47 1.9906e-47 1.98161e-47 1.97518e-47 1.97134e-47 1.97007e-47 1.97121e-47 1.97454e-47 1.97969e-47 1.98624e-47 1.99368e-47 2.00145e-47 2.00896e-47 2.01563e-47 2.02094e-47 2.02445e-47 2.02582e-47 2.02488e-47 2.02157e-47 2.01601e-47 2.00844e-47 1.99923e-47 1.98881e-47 1.97768e-47 1.96631e-47 1.95515e-47 1.94457e-47 1.93485e-47 1.92616e-47 1.91856e-47 1.91201e-47 1.9064e-47 1.90154e-47 1.89726e-47 1.89337e-47 1.88972e-47 1.88624e-47 1.8829e-47 1.87979e-47 1.87705e-47 1.87491e-47 1.87364e-47 1.87358e-47 1.87504e-47 1.87837e-47 1.88386e-47 1.89175e-47 1.90223e-47 1.91539e-47 1.93122e-47 1.94961e-47 1.97031e-47 1.99296e-47 2.01704e-47 2.04187e-47 2.06662e-47 2.0903e-47 2.11173e-47 2.12962e-47 2.14253e-47 2.14897e-47 2.14741e-47 2.13638e-47 2.11456e-47 2.08082e-47 2.03437e-47 1.97478e-47 1.90208e-47 1.81678e-47 1.71986e-47 1.6128e-47 1.49745e-47 1.37599e-47 1.25083e-47 1.12445e-47 9.99308e-48 8.77699e-48 7.61666e-48 6.52912e-48 5.52746e-48 4.62059e-48 3.81332e-48 3.10658e-48 2.49796e-48 1.98231e-48 1.55239e-48 1.19964e-48 9.14742e-49 6.88219e-49 5.10887e-49 3.74187e-49 2.70406e-49 1.92802e-49 1.35637e-49 9.41525e-50 6.44885e-50 4.3586e-50 2.907e-50 1.91336e-50 1.24287e-50 7.9682e-51 5.04226e-51 3.14956e-51 1.94207e-51 1.18223e-51 7.10544e-52 4.21667e-52 2.47099e-52 1.42998e-52 8.17305e-53 4.6139e-53 2.57288e-53 1.41734e-53 7.71388e-54 4.14812e-54 2.20418e-54 1.15744e-54 6.00684e-55 3.08118e-55 1.56217e-55 7.82715e-56 3.87156e-56 1.88083e-56 8.7594e-57 3.43432e-57 0 
0 1.44541e-75 5.06035e-75 1.61746e-74 5.08997e-74 1.58765e-73 4.91149e-73 1.50692e-72 4.5853e-72 1.38363e-71 4.1402e-71 1.22843e-70 3.61391e-70 1.05409e-69 3.04811e-69 8.73787e-69 2.483e-68 6.99387e-68 1.95255e-67 5.40256e-67 1.48145e-66 4.02561e-66 1.08395e-65 2.89192e-65 7.64431e-65 2.00186e-64 5.19327e-64 1.33454e-63 3.39685e-63 8.56331e-63 2.13795e-62 5.28579e-62 1.29405e-61 3.13677e-61 7.52793e-61 1.78853e-60 4.20638e-60 9.79223e-60 2.2562e-59 5.14476e-59 1.16093e-58 2.59218e-58 5.72674e-58 1.25169e-57 2.70641e-57 5.78845e-57 1.22452e-56 2.56193e-56 5.30061e-56 1.08444e-55 2.19364e-55 4.387e-55 8.67308e-55 1.69489e-54 3.27368e-54 6.24905e-54 1.17879e-53 2.19717e-53 4.04629e-53 7.36164e-53 1.32306e-52 2.34871e-52 4.118e-52 7.13038e-52 1.21919e-51 2.05836e-51 3.43105e-51 5.64617e-51 9.17204e-51 1.47072e-50 2.32762e-50 3.63566e-50 5.60418e-50 8.52458e-50 1.2795e-49 1.89492e-49 2.76888e-49 3.99177e-49 5.67753e-49 7.96669e-49 1.10285e-48 1.50616e-48 2.0293e-48 2.69748e-48 3.53767e-48 4.57774e-48 5.84505e-48 7.36494e-48 9.15889e-48 1.12426e-47 1.36242e-47 1.63025e-47 1.9266e-47 2.2492e-47 2.59468e-47 2.95864e-47 3.33582e-47 3.72032e-47 4.10586e-47 4.48609e-47 4.85491e-47 5.2067e-47 5.53664e-47 5.84079e-47 6.11627e-47 6.36124e-47 6.57487e-47 6.75722e-47 6.90915e-47 7.03212e-47 7.12801e-47 7.19902e-47 7.24745e-47 7.27569e-47 7.28604e-47 7.28073e-47 7.26186e-47 7.23138e-47 7.19114e-47 7.14283e-47 7.08808e-47 7.02841e-47 6.96528e-47 6.9001e-47 6.83423e-47 6.769e-47 6.7057e-47 6.64555e-47 6.58972e-47 6.5393e-47 6.49526e-47 6.45842e-47 6.42942e-47 6.40869e-47 6.39637e-47 6.39234e-47 6.39613e-47 6.40697e-47 6.42374e-47 6.44503e-47 6.4692e-47 6.49443e-47 6.51881e-47 6.5405e-47 6.55778e-47 6.56923e-47 6.57378e-47 6.57082e-47 6.5602e-47 6.54229e-47 6.51788e-47 6.48815e-47 6.45453e-47 6.41859e-47 6.3819e-47 6.3459e-47 6.31179e-47 6.28047e-47 6.25248e-47 6.22801e-47 6.20694e-47 6.18887e-47 6.17326e-47 6.15948e-47 6.14694e-47 6.13518e-47 6.12391e-47 6.11311e-47 6.10301e-47 6.0941e-47 6.08712e-47 6.08298e-47 6.08272e-47 6.08743e-47 6.09819e-47 6.11598e-47 6.14159e-47 6.17564e-47 6.21843e-47 6.26997e-47 6.3299e-47 6.39749e-47 6.47155e-47 6.55044e-47 6.63202e-47 6.71361e-47 6.792e-47 6.86343e-47 6.92367e-47 6.96807e-47 6.99172e-47 6.98964e-47 6.95698e-47 6.88931e-47 6.78291e-47 6.63505e-47 6.44424e-47 6.21047e-47 5.93525e-47 5.62176e-47 5.27467e-47 4.90002e-47 4.5049e-47 4.09715e-47 3.68491e-47 3.27625e-47 2.87873e-47 2.4991e-47 2.14301e-47 1.8148e-47 1.51748e-47 1.25266e-47 1.0207e-47 8.20874e-48 6.51506e-48 5.10261e-48 3.94339e-48 3.00697e-48 2.26232e-48 1.67933e-48 1.2299e-48 8.88699e-49 6.33568e-49 4.45649e-49 3.0929e-49 2.11799e-49 1.43116e-49 9.54272e-50 6.27917e-50 4.07756e-50 2.61333e-50 1.65315e-50 1.03224e-50 6.36256e-51 3.87167e-51 2.32602e-51 1.37979e-51 8.08215e-52 4.67515e-52 2.67088e-52 1.50709e-52 8.40019e-53 4.6253e-53 2.51612e-53 1.35238e-53 7.18266e-54 3.76986e-54 1.95549e-54 1.00257e-54 5.08052e-55 2.54431e-55 1.25788e-55 6.10798e-56 2.84341e-56 1.11447e-56 0 
0 4.53959e-75 1.58967e-74 5.08252e-74 1.59987e-73 4.99176e-73 1.54469e-72 4.74082e-72 1.443e-71 4.3557e-71 1.30377e-70 3.86969e-70 1.13881e-69 3.32282e-69 9.612e-69 2.75643e-68 7.83572e-68 2.20793e-67 6.16646e-67 1.70689e-66 4.68238e-66 1.27289e-65 3.42885e-65 9.1519e-65 2.4202e-64 6.34069e-64 1.64566e-63 4.23086e-63 1.07739e-62 2.71733e-62 6.78743e-62 1.67892e-61 4.11228e-61 9.97317e-61 2.39467e-60 5.69233e-60 1.33946e-59 3.11984e-59 7.19219e-59 1.6409e-58 3.70477e-58 8.27676e-58 1.82955e-57 4.00108e-57 8.65608e-57 1.85242e-56 3.92097e-56 8.20816e-56 1.69925e-55 3.4785e-55 7.04056e-55 1.40885e-54 2.78694e-54 5.44945e-54 1.05318e-53 2.01157e-53 3.79675e-53 7.08096e-53 1.30478e-52 2.37521e-52 4.27122e-52 7.58656e-52 1.33089e-51 2.3057e-51 3.94449e-51 6.66294e-51 1.1112e-50 1.82949e-50 2.97336e-50 4.7699e-50 7.55232e-50 1.18013e-49 1.81982e-49 2.76916e-49 4.15779e-49 6.15953e-49 9.00293e-49 1.29823e-48 1.84689e-48 2.59201e-48 3.58867e-48 4.90154e-48 6.60444e-48 8.77918e-48 1.15133e-47 1.48971e-47 1.90189e-47 2.39601e-47 2.97896e-47 3.65567e-47 4.4286e-47 5.29716e-47 6.25734e-47 7.30149e-47 8.4184e-47 9.59354e-47 1.08096e-46 1.20472e-46 1.32859e-46 1.45051e-46 1.56851e-46 1.68078e-46 1.78579e-46 1.8823e-46 1.96943e-46 2.04661e-46 2.11364e-46 2.17058e-46 2.21776e-46 2.25569e-46 2.28502e-46 2.30646e-46 2.32081e-46 2.32882e-46 2.33125e-46 2.3288e-46 2.32216e-46 2.31193e-46 2.29868e-46 2.28297e-46 2.26527e-46 2.24608e-46 2.22583e-46 2.20498e-46 2.18394e-46 2.16313e-46 2.14296e-46 2.1238e-46 2.10603e-46 2.08998e-46 2.07598e-46 2.06427e-46 2.05505e-46 2.04847e-46 2.04458e-46 2.04332e-46 2.04456e-46 2.04804e-46 2.05342e-46 2.06024e-46 2.06797e-46 2.07604e-46 2.08385e-46 2.0908e-46 2.09634e-46 2.10002e-46 2.1015e-46 2.10059e-46 2.09723e-46 2.09155e-46 2.08379e-46 2.07435e-46 2.06366e-46 2.05223e-46 2.04057e-46 2.02913e-46 2.0183e-46 2.00836e-46 1.99948e-46 1.99172e-46 1.98505e-46 1.97932e-46 1.97438e-46 1.97001e-46 1.96603e-46 1.96229e-46 1.95871e-46 1.95526e-46 1.95203e-46 1.94918e-46 1.94694e-46 1.9456e-46 1.9455e-46 1.94699e-46 1.95042e-46 1.9561e-46 1.96429e-46 1.97519e-46 1.9889e-46 2.00544e-46 2.02469e-46 2.04644e-46 2.07031e-46 2.0958e-46 2.12223e-46 2.14875e-46 2.17435e-46 2.19784e-46 2.21785e-46 2.23291e-46 2.24143e-46 2.24179e-46 2.23243e-46 2.21188e-46 2.17893e-46 2.13266e-46 2.07255e-46 1.99856e-46 1.91114e-46 1.81127e-46 1.70043e-46 1.58054e-46 1.45389e-46 1.32299e-46 1.19046e-46 1.05893e-46 9.30854e-47 8.08424e-47 6.93486e-47 5.87471e-47 4.91366e-47 4.05719e-47 3.30664e-47 2.65975e-47 2.11127e-47 1.65372e-47 1.27811e-47 9.74631e-48 7.3327e-48 5.44288e-48 3.98594e-48 2.87984e-48 2.05281e-48 1.4437e-48 1.00176e-48 6.85845e-49 4.63319e-49 3.08849e-49 2.03164e-49 1.31889e-49 8.44993e-50 5.34335e-50 3.33517e-50 2.05493e-50 1.24993e-50 7.50614e-51 4.45065e-51 2.60581e-51 1.50664e-51 8.60327e-52 4.85221e-52 2.70319e-52 1.48769e-52 8.0888e-53 4.34542e-53 2.30672e-53 1.21007e-53 6.2736e-54 3.21475e-54 1.62823e-54 8.1499e-55 4.02715e-55 1.95452e-55 9.09466e-56 3.56345e-56 0 
0 1.41315e-74 4.94972e-74 1.58298e-73 4.98435e-73 1.55564e-72 4.81539e-72 1.47836e-71 4.50126e-71 1.35915e-70 4.06967e-70 1.20832e-69 3.55723e-69 1.0383e-68 3.00461e-68 8.61954e-68 2.45122e-67 6.90967e-67 1.93055e-66 5.34598e-66 1.46713e-65 3.99001e-65 1.07527e-64 2.87125e-64 7.59632e-64 1.99107e-63 5.16997e-63 1.32978e-62 3.38792e-62 8.54895e-62 2.13643e-61 5.28726e-61 1.2957e-60 3.14397e-60 7.55298e-60 1.79635e-59 4.22926e-59 9.85605e-59 2.27338e-58 5.18961e-58 1.17235e-57 2.62062e-57 5.79614e-57 1.26831e-56 2.74551e-56 5.87891e-56 1.24511e-55 2.60809e-55 5.40251e-55 1.1066e-54 2.24115e-54 4.48738e-54 8.88218e-54 1.73784e-53 3.36065e-53 6.42274e-53 1.213e-52 2.26361e-52 4.17354e-52 7.60201e-52 1.36783e-51 2.43096e-51 4.26699e-51 7.39651e-51 1.26605e-50 2.13974e-50 3.57037e-50 5.88129e-50 9.56319e-50 1.53486e-49 2.43128e-49 3.80078e-49 5.86337e-49 8.92548e-49 1.3406e-48 1.98667e-48 2.90461e-48 4.18957e-48 5.96148e-48 8.36819e-48 1.15876e-47 1.58285e-47 2.1329e-47 2.83529e-47 3.7182e-47 4.8106e-47 6.14084e-47 7.73491e-47 9.61457e-47 1.17953e-46 1.42843e-46 1.7079e-46 2.01656e-46 2.35186e-46 2.71009e-46 3.08648e-46 3.47539e-46 3.87051e-46 4.26522e-46 4.6529e-46 5.0272e-46 5.38241e-46 5.71368e-46 6.01715e-46 6.2901e-46 6.53094e-46 6.73912e-46 6.91505e-46 7.05991e-46 7.17549e-46 7.26395e-46 7.32774e-46 7.36938e-46 7.39136e-46 7.39609e-46 7.38585e-46 7.36272e-46 7.32865e-46 7.28541e-46 7.23466e-46 7.17793e-46 7.11667e-46 7.05229e-46 6.98613e-46 6.9195e-46 6.85368e-46 6.78992e-46 6.72942e-46 6.67333e-46 6.62272e-46 6.57855e-46 6.54164e-46 6.51263e-46 6.49193e-46 6.47971e-46 6.47583e-46 6.47984e-46 6.49094e-46 6.50803e-46 6.52967e-46 6.55422e-46 6.57984e-46 6.60462e-46 6.62668e-46 6.6443e-46 6.65604e-46 6.66082e-46 6.65802e-46 6.64751e-46 6.62964e-46 6.60523e-46 6.57546e-46 6.54178e-46 6.50577e-46 6.46903e-46 6.43299e-46 6.39888e-46 6.3676e-46 6.33967e-46 6.3153e-46 6.29432e-46 6.27635e-46 6.26082e-46 6.2471e-46 6.23459e-46 6.22281e-46 6.21148e-46 6.20058e-46 6.19035e-46 6.18129e-46 6.17415e-46 6.16987e-46 6.16952e-46 6.17421e-46 6.18504e-46 6.20302e-46 6.22899e-46 6.26358e-46 6.30716e-46 6.35978e-46 6.42114e-46 6.49054e-46 6.56688e-46 6.64857e-46 6.73351e-46 6.81906e-46 6.90204e-46 6.97867e-46 7.04467e-46 7.0953e-46 7.12552e-46 7.13013e-46 7.10406e-46 7.0426e-46 6.94174e-46 6.79843e-46 6.61091e-46 6.37887e-46 6.10365e-46 5.78828e-46 5.43738e-46 5.05702e-46 4.65444e-46 4.23769e-46 3.81518e-46 3.3953e-46 2.98599e-46 2.59434e-46 2.22633e-46 1.88663e-46 1.57847e-46 1.30368e-46 1.06275e-46 8.54995e-47 6.78781e-47 5.31733e-47 4.10988e-47 3.13411e-47 2.35795e-47 1.75018e-47 1.28159e-47 9.25851e-48 6.59871e-48 4.63993e-48 3.21893e-48 2.2033e-48 1.48804e-48 9.91652e-49 6.52119e-49 4.23197e-49 2.71042e-49 1.7133e-49 1.06898e-49 6.58373e-50 4.00291e-50 2.40278e-50 1.42405e-50 8.33377e-51 4.81617e-51 2.7488e-51 1.54954e-51 8.62818e-52 4.74604e-52 2.57916e-52 1.38484e-52 7.34737e-53 3.85227e-53 1.99614e-53 1.02232e-53 5.17515e-54 2.58896e-54 1.27862e-54 6.2024e-55 2.88473e-55 1.12991e-55 0 
0 4.36282e-74 1.52849e-73 4.8897e-73 1.54009e-72 4.80818e-72 1.48881e-71 4.57225e-71 1.3926e-70 4.20638e-70 1.25994e-69 3.74219e-69 1.10208e-68 3.21797e-68 9.31561e-68 2.67346e-67 7.60575e-67 2.14482e-66 5.99502e-66 1.6608e-65 4.55975e-65 1.24061e-64 3.3448e-64 8.93546e-64 2.36509e-63 6.20199e-63 1.61116e-62 4.1461e-62 1.05683e-61 2.66809e-61 6.67107e-61 1.65181e-60 4.05004e-60 9.83247e-60 2.36339e-59 5.624e-59 1.32482e-58 3.08915e-58 7.1294e-58 1.62841e-57 3.68078e-57 8.23267e-57 1.82193e-56 3.98911e-56 8.64045e-56 1.85129e-55 3.92331e-55 8.22305e-55 1.70442e-54 3.49335e-54 7.07933e-54 1.41836e-53 2.80922e-53 5.49983e-53 1.06423e-52 2.03519e-52 3.84605e-52 7.18167e-52 1.32494e-51 2.41483e-51 4.34763e-51 7.73137e-51 1.35787e-50 2.35512e-50 4.03353e-50 6.82078e-50 1.13873e-49 1.87676e-49 3.05322e-49 4.90271e-49 7.76973e-49 1.21517e-48 1.8754e-48 2.85594e-48 4.29117e-48 6.36132e-48 9.30341e-48 1.34227e-47 1.91042e-47 2.6822e-47 3.71468e-47 5.07476e-47 6.83876e-47 9.09104e-47 1.19217e-46 1.54231e-46 1.96855e-46 2.4791e-46 3.08082e-46 3.77849e-46 4.57421e-46 5.46691e-46 6.4519e-46 7.52072e-46 8.66119e-46 9.85779e-46 1.10922e-45 1.23441e-45 1.35921e-45 1.48152e-45 1.59931e-45 1.71078e-45 1.81441e-45 1.90901e-45 1.99377e-45 2.06822e-45 2.13226e-45 2.18605e-45 2.23004e-45 2.26483e-45 2.29116e-45 2.30982e-45 2.32164e-45 2.32741e-45 2.32792e-45 2.32387e-45 2.31591e-45 2.30465e-45 2.29064e-45 2.27437e-45 2.25631e-45 2.23691e-45 2.21659e-45 2.19577e-45 2.17483e-45 2.15417e-45 2.13418e-45 2.11523e-45 2.09767e-45 2.08183e-45 2.06801e-45 2.05647e-45 2.04741e-45 2.04095e-45 2.03715e-45 2.03597e-45 2.03725e-45 2.04076e-45 2.04615e-45 2.05297e-45 2.0607e-45 2.06876e-45 2.07657e-45 2.08352e-45 2.08907e-45 2.09279e-45 2.09432e-45 2.09347e-45 2.0902e-45 2.08463e-45 2.07701e-45 2.0677e-45 2.05717e-45 2.04592e-45 2.03443e-45 2.02317e-45 2.01252e-45 2.00276e-45 1.99404e-45 1.98644e-45 1.97991e-45 1.97431e-45 1.96948e-45 1.9652e-45 1.9613e-45 1.95762e-45 1.95407e-45 1.95065e-45 1.94743e-45 1.94458e-45 1.94232e-45 1.94097e-45 1.94084e-45 1.9423e-45 1.9457e-45 1.95134e-45 1.95952e-45 1.97041e-45 1.98416e-45 2.00077e-45 2.02018e-45 2.04216e-45 2.06639e-45 2.09237e-45 2.11947e-45 2.14687e-45 2.17357e-45 2.19839e-45 2.22e-45 2.23688e-45 2.24745e-45 2.25005e-45 2.24306e-45 2.22495e-45 2.19443e-45 2.15049e-45 2.09252e-45 2.0204e-45 1.93449e-45 1.83572e-45 1.72553e-45 1.60581e-45 1.47886e-45 1.3472e-45 1.21353e-45 1.08052e-45 9.50709e-46 8.26368e-46 7.09427e-46 6.01392e-46 5.0332e-46 4.15811e-46 3.39043e-46 2.72817e-46 2.16622e-46 1.69712e-46 1.31183e-46 1.00041e-46 7.52652e-47 5.58627e-47 4.09031e-47 2.95459e-47 2.10548e-47 1.48022e-47 1.02668e-47 7.02578e-48 4.74375e-48 3.16037e-48 2.07763e-48 1.34783e-48 8.62922e-49 5.4526e-49 3.40066e-49 2.09355e-49 1.27232e-49 7.63377e-50 4.52216e-50 2.64517e-50 1.52792e-50 8.71612e-51 4.9109e-51 2.73308e-51 1.50257e-51 8.16112e-52 4.37962e-52 2.32238e-52 1.21697e-52 6.30252e-53 3.22606e-53 1.63218e-53 8.16075e-54 4.02817e-54 1.95298e-54 9.07899e-55 3.55485e-55 0 
0 1.33584e-73 4.6812e-73 1.49797e-72 4.71956e-72 1.47392e-71 4.56534e-71 1.40251e-70 4.27317e-70 1.29117e-69 3.8688e-69 1.1495e-68 3.38653e-68 9.89211e-68 2.86474e-67 8.22465e-67 2.34078e-66 6.60367e-66 1.84658e-65 5.11774e-65 1.40569e-64 3.82627e-64 1.03206e-63 2.75837e-63 7.30442e-63 1.91636e-62 4.98074e-62 1.28236e-61 3.27032e-61 8.26052e-61 2.06646e-60 5.11941e-60 1.25589e-59 3.05064e-59 7.33674e-59 1.74685e-58 4.11731e-58 9.60601e-58 2.21824e-57 5.06964e-57 1.14659e-56 2.56609e-56 5.68235e-56 1.24491e-55 2.69816e-55 5.78465e-55 1.22667e-54 2.57267e-54 5.33584e-54 1.09433e-53 2.2191e-53 4.44889e-53 8.81722e-53 1.72733e-52 3.34458e-52 6.40016e-52 1.21027e-51 2.26136e-51 4.17461e-51 7.61341e-51 1.37157e-50 2.44056e-50 4.28897e-50 7.44334e-50 1.27554e-49 2.1582e-49 3.60513e-49 5.94489e-49 9.67658e-49 1.5546e-48 2.4649e-48 3.85681e-48 5.95491e-48 9.07211e-48 1.36364e-47 2.0222e-47 2.95839e-47 4.2695e-47 6.07813e-47 8.53536e-47 1.18229e-46 1.61537e-46 2.17703e-46 2.8941e-46 3.79514e-46 4.90942e-46 6.26539e-46 7.88891e-46 9.80132e-46 1.20173e-45 1.45428e-45 1.73737e-45 2.04941e-45 2.38761e-45 2.74803e-45 3.12561e-45 3.51447e-45 3.9081e-45 4.2997e-45 4.68254e-45 5.05026e-45 5.39722e-45 5.7187e-45 6.01107e-45 6.27189e-45 6.4999e-45 6.69491e-45 6.85768e-45 6.98972e-45 7.09312e-45 7.17031e-45 7.22391e-45 7.25656e-45 7.27084e-45 7.26918e-45 7.2538e-45 7.22673e-45 7.18981e-45 7.1447e-45 7.09292e-45 7.03588e-45 6.9749e-45 6.91126e-45 6.8462e-45 6.78092e-45 6.71661e-45 6.65443e-45 6.59553e-45 6.54099e-45 6.49182e-45 6.44895e-45 6.41317e-45 6.38508e-45 6.3651e-45 6.35338e-45 6.34979e-45 6.35388e-45 6.36489e-45 6.38174e-45 6.40305e-45 6.42719e-45 6.45238e-45 6.47675e-45 6.49848e-45 6.51587e-45 6.52753e-45 6.53239e-45 6.52985e-45 6.51979e-45 6.50254e-45 6.47892e-45 6.45007e-45 6.41742e-45 6.38252e-45 6.34692e-45 6.31202e-45 6.27902e-45 6.24878e-45 6.22183e-45 6.19833e-45 6.17814e-45 6.16085e-45 6.14591e-45 6.1327e-45 6.12062e-45 6.1092e-45 6.09818e-45 6.08754e-45 6.0775e-45 6.06858e-45 6.06152e-45 6.05725e-45 6.05681e-45 6.06133e-45 6.07189e-45 6.08949e-45 6.11501e-45 6.14907e-45 6.19208e-45 6.24415e-45 6.30504e-45 6.37415e-45 6.45046e-45 6.53252e-45 6.61834e-45 6.70544e-45 6.79073e-45 6.87057e-45 6.94075e-45 6.99661e-45 7.03311e-45 7.04502e-45 7.02717e-45 6.97472e-45 6.88345e-45 6.75008e-45 6.57258e-45 6.35036e-45 6.08449e-45 5.77773e-45 5.43449e-45 5.0607e-45 4.66347e-45 4.25081e-45 3.83119e-45 3.41305e-45 3.00446e-45 2.61268e-45 2.24387e-45 1.90285e-45 1.59306e-45 1.31645e-45 1.07366e-45 8.64109e-46 6.86223e-46 5.37681e-46 4.15643e-46 3.16981e-46 2.38477e-46 1.76992e-46 1.29585e-46 9.3593e-47 6.66855e-47 4.68734e-47 3.25044e-47 2.22379e-47 1.50107e-47 9.9974e-48 6.57014e-48 4.2608e-48 2.72687e-48 1.72236e-48 1.07375e-48 6.60748e-49 4.01378e-49 2.4071e-49 1.42525e-49 8.33269e-50 4.81074e-50 2.7429e-50 1.54461e-50 8.59166e-51 4.7209e-51 2.56272e-51 1.37451e-51 7.28451e-52 3.81507e-52 1.97466e-52 1.01019e-52 5.10801e-53 2.55252e-53 1.25922e-53 6.10179e-54 2.83521e-54 1.10971e-54 0 
0 4.05629e-73 1.42181e-72 4.55111e-72 1.43434e-71 4.48089e-71 1.38838e-70 4.26666e-70 1.30042e-69 3.93067e-69 1.1782e-68 3.50196e-68 1.0321e-67 3.01594e-67 8.73754e-67 2.50955e-66 7.14523e-66 2.01662e-65 5.64145e-65 1.56419e-64 4.29829e-64 1.17052e-63 3.15869e-63 8.44613e-63 2.23768e-62 5.87355e-62 1.52733e-61 3.9343e-61 1.00386e-60 2.53697e-60 6.3499e-60 1.57396e-59 3.86334e-59 9.38951e-59 2.25944e-58 5.38272e-58 1.26944e-57 2.96345e-57 6.84735e-57 1.56586e-56 3.54365e-56 7.93563e-56 1.75836e-55 3.85472e-55 8.35984e-55 1.79344e-54 3.80556e-54 7.98651e-54 1.65753e-53 3.40166e-53 6.90253e-53 1.38475e-52 2.74625e-52 5.3836e-52 1.04311e-51 1.9974e-51 3.77958e-51 7.06672e-51 1.30542e-50 2.38229e-50 4.29449e-50 7.64644e-50 1.34461e-49 2.33495e-49 4.00375e-49 6.77831e-49 1.13292e-48 1.86925e-48 3.04425e-48 4.89332e-48 7.76248e-48 1.21517e-47 1.87707e-47 2.86086e-47 4.30189e-47 6.38176e-47 9.33933e-47 1.34823e-46 1.91985e-46 2.69658e-46 3.73586e-46 5.10497e-46 6.88054e-46 9.14713e-46 1.19948e-45 1.55154e-45 1.97981e-45 2.49237e-45 3.0958e-45 3.79457e-45 4.59034e-45 5.48152e-45 6.46283e-45 7.52517e-45 8.65572e-45 9.83832e-45 1.10541e-44 1.22823e-44 1.35016e-44 1.46905e-44 1.58293e-44 1.69003e-44 1.78891e-44 1.87848e-44 1.95801e-44 2.02716e-44 2.08595e-44 2.13465e-44 2.17381e-44 2.20413e-44 2.22639e-44 2.24146e-44 2.25019e-44 2.25338e-44 2.25181e-44 2.24615e-44 2.23704e-44 2.22503e-44 2.21061e-44 2.19425e-44 2.17636e-44 2.15734e-44 2.13757e-44 2.1174e-44 2.09721e-44 2.07734e-44 2.05816e-44 2.04e-44 2.02319e-44 2.00806e-44 1.99486e-44 1.98385e-44 1.97522e-44 1.96909e-44 1.9655e-44 1.96443e-44 1.96572e-44 1.96915e-44 1.97437e-44 1.98098e-44 1.98846e-44 1.99626e-44 2.00382e-44 2.01055e-44 2.01595e-44 2.01958e-44 2.02111e-44 2.02036e-44 2.01728e-44 2.01199e-44 2.00473e-44 1.99586e-44 1.98582e-44 1.97509e-44 1.96414e-44 1.95341e-44 1.94327e-44 1.93398e-44 1.92571e-44 1.91851e-44 1.91232e-44 1.90702e-44 1.90245e-44 1.8984e-44 1.89469e-44 1.89118e-44 1.88778e-44 1.88449e-44 1.88139e-44 1.87862e-44 1.87643e-44 1.8751e-44 1.87495e-44 1.87633e-44 1.87959e-44 1.88504e-44 1.89294e-44 1.90351e-44 1.91686e-44 1.93305e-44 1.95202e-44 1.97358e-44 1.99743e-44 2.02315e-44 2.05013e-44 2.07762e-44 2.10466e-44 2.13015e-44 2.15279e-44 2.17112e-44 2.18356e-44 2.18849e-44 2.18427e-44 2.16936e-44 2.14241e-44 2.10236e-44 2.04852e-44 1.98067e-44 1.89909e-44 1.80461e-44 1.69857e-44 1.58279e-44 1.45949e-44 1.33116e-44 1.20044e-44 1.07001e-44 9.42387e-45 8.19879e-45 7.04437e-45 5.97605e-45 5.00478e-45 4.13698e-45 3.37483e-45 2.71669e-45 2.15777e-45 1.69089e-45 1.3072e-45 9.96934e-46 7.50027e-46 5.56626e-46 4.07497e-46 2.94281e-46 2.09644e-46 1.47331e-46 1.02144e-46 6.98642e-47 4.71455e-47 3.139e-47 2.06221e-47 1.33688e-47 8.55259e-48 5.39985e-48 3.36493e-48 2.06973e-48 1.2567e-48 7.53289e-49 4.45805e-49 2.60506e-49 1.50321e-49 8.56615e-50 4.82125e-50 2.68027e-50 1.47192e-50 7.98575e-51 4.28068e-51 2.26734e-51 1.18678e-51 6.13912e-52 3.1388e-52 1.5862e-52 7.92178e-53 3.90577e-53 1.89156e-53 8.78475e-54 3.43712e-54 0 
0 1.22143e-72 4.28244e-72 1.3712e-71 4.3229e-71 1.35092e-70 4.18717e-70 1.28721e-69 3.92463e-69 1.1867e-68 3.55838e-68 1.05806e-67 3.11951e-67 9.11923e-67 2.64302e-66 7.59425e-66 2.16315e-65 6.10773e-65 1.70937e-64 4.74166e-64 1.30356e-63 3.55152e-63 9.58849e-63 2.56513e-62 6.79928e-62 1.78559e-61 4.64553e-61 1.19727e-60 3.05651e-60 7.72863e-60 1.93548e-59 4.80016e-59 1.17888e-58 2.8668e-58 6.9025e-58 1.64537e-57 3.88268e-57 9.06942e-57 2.09687e-56 4.7981e-56 1.08653e-55 2.43471e-55 5.39823e-55 1.18418e-54 2.56985e-54 5.51674e-54 1.1714e-53 2.45999e-53 5.10892e-53 1.04919e-52 2.13043e-52 4.27687e-52 8.48774e-52 1.66503e-51 3.22831e-51 6.186e-51 1.17134e-50 2.19156e-50 4.05115e-50 7.39799e-50 1.3345e-49 2.37767e-49 4.18377e-49 7.26987e-49 1.24735e-48 2.11303e-48 3.53382e-48 5.83392e-48 9.50642e-48 1.52888e-47 2.42659e-47 3.80056e-47 5.87344e-47 8.95572e-47 1.34723e-46 1.99933e-46 2.92691e-46 4.22659e-46 6.02018e-46 8.4577e-46 1.17195e-45 1.60166e-45 2.15892e-45 2.87022e-45 3.7637e-45 4.86805e-45 6.211e-45 7.81751e-45 9.70782e-45 1.18953e-44 1.43845e-44 1.71696e-44 2.0233e-44 2.35453e-44 2.70653e-44 3.07415e-44 3.45139e-44 3.83171e-44 4.20835e-44 4.57466e-44 4.92446e-44 5.25235e-44 5.55389e-44 5.82582e-44 6.06607e-44 6.27376e-44 6.44908e-44 6.59316e-44 6.7078e-44 6.79535e-44 6.85842e-44 6.89976e-44 6.92205e-44 6.92788e-44 6.9196e-44 6.89933e-44 6.86897e-44 6.83019e-44 6.78447e-44 6.73315e-44 6.67748e-44 6.61859e-44 6.55759e-44 6.49558e-44 6.43361e-44 6.37274e-44 6.31403e-44 6.2585e-44 6.20715e-44 6.16091e-44 6.12064e-44 6.08706e-44 6.06074e-44 6.04208e-44 6.0312e-44 6.02799e-44 6.03204e-44 6.04262e-44 6.05871e-44 6.07902e-44 6.10201e-44 6.126e-44 6.14922e-44 6.16993e-44 6.18656e-44 6.19777e-44 6.20256e-44 6.20035e-44 6.19103e-44 6.17493e-44 6.1528e-44 6.12575e-44 6.09511e-44 6.06237e-44 6.02897e-44 5.99626e-44 5.96536e-44 5.93708e-44 5.9119e-44 5.88998e-44 5.87118e-44 5.85509e-44 5.84119e-44 5.82888e-44 5.81759e-44 5.80688e-44 5.79651e-44 5.78643e-44 5.77691e-44 5.76841e-44 5.76165e-44 5.75751e-44 5.75702e-44 5.76124e-44 5.77121e-44 5.78792e-44 5.81221e-44 5.84472e-44 5.88588e-44 5.93583e-44 5.99443e-44 6.06118e-44 6.1352e-44 6.2152e-44 6.29939e-44 6.38549e-44 6.47064e-44 6.55143e-44 6.62388e-44 6.68351e-44 6.72546e-44 6.74462e-44 6.73588e-44 6.69441e-44 6.61589e-44 6.49691e-44 6.33521e-44 6.12993e-44 5.88181e-44 5.59328e-44 5.26838e-44 4.91268e-44 4.53299e-44 4.13703e-44 3.73302e-44 3.32927e-44 2.93371e-44 2.55355e-44 2.19495e-44 1.8628e-44 1.56058e-44 1.29037e-44 1.05291e-44 8.47749e-45 6.73445e-45 5.27791e-45 4.08057e-45 3.11215e-45 2.34135e-45 1.73752e-45 1.2719e-45 9.18409e-46 6.54162e-46 4.59634e-46 3.18589e-46 2.17851e-46 1.46966e-46 9.78205e-47 6.42423e-47 4.16312e-47 2.66227e-47 1.68018e-47 1.04655e-47 6.43424e-48 3.90487e-48 2.33951e-48 1.38384e-48 8.08226e-49 4.66124e-49 2.6548e-49 1.49336e-49 8.2973e-50 4.554e-50 2.46929e-50 1.32287e-50 7.00268e-51 3.66317e-51 1.89381e-51 9.67684e-52 4.88729e-52 2.43934e-52 1.20199e-52 5.81787e-53 2.70054e-53 1.05621e-53 0 