# vtk DataFile Version 3.0
Gray-Scott Simulation Output
ASCII
DATASET STRUCTURED_POINTS
DIMENSIONS 256 256 1
SPACING 1.0 1.0 1.0
ORIGIN 0 0 0
POINT_DATA 65536
SCALARS u double
LOOKUP_TABLE default
0 0 0 0 0 0 0 0 0 0 0 0 0 0 0 0 0 0 0 0 0 0 0 0 0 0 0 0 0 0 0 0 0 0 0 0 0 0 0 0 0 0 0 0 0 0 0 0 0 0 0 0 0 0 0 0 0 0 0 0 0 0 0 0 0 0 0 0 0 0 0 0 0 0 0 0 0 0 0 0 0 0 0 0 0 0 0 0 0 0 0 0 0 0 0 0 0 0 0 0 0 0 0 0 0 0 0 0 0 0 0 0 0 0 0 0 0 0 0 0 0 0 0 0 0 0 0 0 0 0 0 0 0 0 0 0 0 0 0 0 0 0 0 0 0 0 0 0 0 0 0 0 0 0 0 0 0 0 0 0 0 0 0 0 0 0 0 0 0 0 0 0 0 0 0 0 0 0 0 0 0 0 0 0 0 0 0 0 0 0 0 0 0 0 0 0 0 0 0 0 0 0 0 0 0 0 0 0 0 0 0 0 0 0 0 0 0 0 0 0 0 0 0 0 0 0 0 0 0 0 0 0 0 0 0 0 0 0 0 0 0 0 0 0 0 0 0 0 0 0 0 0 0 0 0 0 
0 9.96398e-80 3.76214e-79 1.31226e-78 4.51429e-78 1.53916e-77 5.20292e-77 1.74368e-76 5.79317e-76 1.90796e-75 6.22873e-75 2.01548e-74 6.46363e-74 2.05431e-73 6.47024e-73 2.01933e-72 6.24451e-72 1.91321e-71 5.80726e-71 1.74619e-70 5.2011e-70 1.53443e-69 4.48351e-69 1.2974e-68 3.71776e-68 1.0549e-67 2.96362e-67 8.24302e-67 2.26969e-66 6.18628e-66 1.66893e-65 4.45611e-65 1.17747e-64 3.07877e-64 7.96536e-64 2.0389e-63 5.16307e-63 1.29332e-62 3.20442e-62 7.85233e-62 1.90289e-61 4.55988e-61 1.08038e-60 2.53072e-60 5.8602e-60 1.34134e-59 3.03446e-59 6.78417e-59 1.49879e-58 3.27169e-58 7.05577e-58 1.50319e-57 3.16327e-57 6.57454e-57 1.34945e-56 2.73506e-56 5.47327e-56 1.08132e-55 2.10883e-55 4.05943e-55 7.71219e-55 1.44589e-54 2.67482e-54 4.88211e-54 8.79091e-54 1.56145e-53 2.73558e-53 4.72665e-53 8.05384e-53 1.35318e-52 2.2417e-52 3.66124e-52 5.89488e-52 9.35591e-52 1.46363e-51 2.25675e-51 3.4294e-51 5.13587e-51 7.57978e-51 1.10238e-50 1.5799e-50 2.23126e-50 3.10525e-50 4.2587e-50 5.75583e-50 7.6668e-50 1.00653e-49 1.30254e-49 1.66171e-49 2.09018e-49 2.5927e-49 3.17209e-49 3.82881e-49 4.56062e-49 5.36234e-49 6.22585e-49 7.14032e-49 8.09257e-49 9.06769e-49 1.00497e-48 1.10224e-48 1.197e-48 1.28781e-48 1.3734e-48 1.45272e-48 1.52498e-48 1.58962e-48 1.64636e-48 1.6951e-48 1.73597e-48 1.76922e-48 1.79526e-48 1.81456e-48 1.82765e-48 1.8351e-48 1.83752e-48 1.83547e-48 1.82955e-48 1.82032e-48 1.80832e-48 1.79406e-48 1.77806e-48 1.76077e-48 1.74266e-48 1.72416e-48 1.70568e-48 1.68763e-48 1.67037e-48 1.65429e-48 1.63971e-48 1.62694e-48 1.61624e-48 1.60784e-48 1.60189e-48 1.59846e-48 1.59755e-48 1.59905e-48 1.60276e-48 1.60835e-48 1.61539e-48 1.62338e-48 1.63174e-48 1.63985e-48 1.64709e-48 1.65288e-48 1.65675e-48 1.65833e-48 1.6574e-48 1.65393e-48 1.64804e-48 1.64003e-48 1.63032e-48 1.61943e-48 1.60791e-48 1.59633e-48 1.58517e-48 1.57485e-48 1.56565e-48 1.55773e-48 1.55111e-48 1.54569e-48 1.54128e-48 1.53765e-48 1.53453e-48 1.53166e-48 1.52885e-48 1.52598e-48 1.523e-48 1.51996e-48 1.51703e-48 1.51442e-48 1.51243e-48 1.5114e-48 1.51166e-48 1.51356e-48 1.51739e-48 1.52339e-48 1.53173e-48 1.54249e-48 1.55566e-48 1.57109e-48 1.58854e-48 1.60766e-48 1.62795e-48 1.64877e-48 1.66937e-48 1.68881e-48 1.70605e-48 1.7199e-48 1.72907e-48 1.73224e-48 1.72805e-48 1.71523e-48 1.69268e-48 1.65951e-48 1.61514e-48 1.55938e-48 1.4925e-48 1.41517e-48 1.32855e-48 1.23417e-48 1.13391e-48 1.02987e-48 9.2427e-49 8.19338e-49 7.17169e-49 6.1964e-49 5.2832e-49 4.44413e-49 3.68737e-49 3.0172e-49 2.43433e-49 1.93635e-49 1.51832e-49 1.1735e-49 8.93926e-50 6.71116e-50 4.96536e-50 3.62033e-50 2.60125e-50 1.84184e-50 1.28517e-50 8.83717e-51 5.9886e-51 3.99954e-51 2.63261e-51 1.70796e-51 1.09222e-51 6.88503e-52 4.27857e-52 2.62131e-52 1.58344e-52 9.43149e-53 5.53978e-53 3.20905e-53 1.83346e-53 1.03328e-53 5.74455e-54 3.15085e-54 1.70521e-54 9.10635e-55 4.79927e-55 2.49639e-55 1.28174e-55 6.49651e-56 3.25087e-56 1.60621e-56 7.83668e-57 3.77598e-57 1.79692e-57 8.44515e-58 3.91735e-58 1.78673e-58 7.85291e-59 2.94701e-59 0 
0 3.75749e-79 1.41893e-78 4.95015e-78 1.7032e-77 5.80815e-77 1.96373e-76 6.58239e-76 2.18735e-75 7.20542e-75 2.35276e-74 7.61462e-74 2.44254e-73 7.76475e-73 2.44613e-72 7.63602e-72 2.3619e-71 7.23822e-71 2.1976e-70 6.60968e-70 1.96923e-69 5.81118e-69 1.69845e-68 4.91619e-68 1.40916e-67 3.99957e-67 1.12397e-66 3.12716e-66 8.61319e-66 2.34835e-65 6.33737e-65 1.69266e-64 4.47409e-64 1.17025e-63 3.0287e-63 7.75529e-63 1.96456e-62 4.92288e-62 1.22017e-61 2.9911e-61 7.25118e-61 1.73826e-60 4.12008e-60 9.65476e-60 2.23656e-59 5.12131e-59 1.15904e-58 2.59233e-58 5.72946e-58 1.25119e-57 2.69946e-57 5.75344e-57 1.21125e-56 2.51852e-56 5.17155e-56 1.04861e-55 2.09932e-55 4.14925e-55 8.09544e-55 1.559e-54 2.96306e-54 5.55748e-54 1.02852e-53 1.87804e-53 3.38301e-53 6.0113e-53 1.05355e-52 1.82106e-52 3.10407e-52 5.21723e-52 8.64588e-52 1.41255e-51 2.27503e-51 3.61183e-51 5.65191e-51 8.71688e-51 1.32496e-50 1.9847e-50 2.9297e-50 4.26161e-50 6.10854e-50 8.62802e-50 1.20088e-49 1.64705e-49 2.22613e-49 2.96523e-49 3.89276e-49 5.03723e-49 6.42558e-49 8.0813e-49 1.00224e-48 1.22596e-48 1.47941e-48 1.76168e-48 2.07071e-48 2.40332e-48 2.75529e-48 3.12147e-48 3.49609e-48 3.87296e-48 4.24583e-48 4.60865e-48 4.95588e-48 5.28269e-48 5.58512e-48 5.86018e-48 6.10586e-48 6.32111e-48 6.50569e-48 6.66011e-48 6.78548e-48 6.88333e-48 6.95555e-48 7.00421e-48 7.03151e-48 7.03972e-48 7.03108e-48 7.0078e-48 6.97201e-48 6.92577e-48 6.87104e-48 6.80972e-48 6.74358e-48 6.67435e-48 6.60366e-48 6.53309e-48 6.46417e-48 6.39833e-48 6.33695e-48 6.28132e-48 6.23261e-48 6.19182e-48 6.15979e-48 6.1371e-48 6.12407e-48 6.12066e-48 6.12646e-48 6.14068e-48 6.16209e-48 6.18907e-48 6.21968e-48 6.25168e-48 6.28273e-48 6.31047e-48 6.3327e-48 6.34755e-48 6.35365e-48 6.35016e-48 6.33695e-48 6.3145e-48 6.28395e-48 6.24691e-48 6.20535e-48 6.16142e-48 6.11723e-48 6.07469e-48 6.03536e-48 6.00033e-48 5.97018e-48 5.94499e-48 5.92438e-48 5.90765e-48 5.89385e-48 5.88197e-48 5.87106e-48 5.86036e-48 5.84938e-48 5.83796e-48 5.82634e-48 5.81507e-48 5.80505e-48 5.79739e-48 5.79337e-48 5.79432e-48 5.80152e-48 5.81612e-48 5.83905e-48 5.87095e-48 5.91213e-48 5.96251e-48 6.02162e-48 6.08855e-48 6.16191e-48 6.23984e-48 6.31994e-48 6.3993e-48 6.47441e-48 6.54125e-48 6.5953e-48 6.63162e-48 6.64509e-48 6.63054e-48 6.58306e-48 6.49831e-48 6.37284e-48 6.2044e-48 5.9922e-48 5.73709e-48 5.4417e-48 5.11035e-48 4.7489e-48 4.36454e-48 3.96533e-48 3.55982e-48 3.15658e-48 2.7637e-48 2.38845e-48 2.03691e-48 1.71375e-48 1.42218e-48 1.16388e-48 9.39154e-49 7.47107e-49 5.85861e-49 4.52826e-49 3.44952e-49 2.58971e-49 1.91597e-49 1.39689e-49 1.0036e-49 7.1053e-50 4.95718e-50 3.40819e-50 2.3092e-50 1.54192e-50 1.01473e-50 6.58175e-51 4.20791e-51 2.65186e-51 1.6475e-51 1.00907e-51 6.09357e-52 3.62841e-52 2.13054e-52 1.23376e-52 7.04655e-53 3.96983e-53 2.20626e-53 1.20968e-53 6.54427e-54 3.49356e-54 1.8405e-54 9.56996e-55 4.91171e-55 2.48856e-55 1.24481e-55 6.14809e-56 2.99849e-56 1.44423e-56 6.87017e-57 3.22763e-57 1.4966e-57 6.82361e-58 2.99807e-58 1.12482e-58 0 
0 1.30876e-78 4.94307e-78 1.7248e-77 5.93575e-77 2.0246e-76 6.84665e-76 2.2955e-75 7.62977e-75 2.51394e-74 8.21066e-74 2.658e-73 8.52821e-73 2.7118e-72 8.54524e-72 2.66827e-71 8.25554e-71 2.5307e-70 7.6857e-70 2.3123e-69 6.89117e-69 2.03421e-68 5.94735e-68 1.72203e-67 4.93761e-67 1.4019e-66 3.94102e-66 1.09687e-65 3.02223e-65 8.243e-65 2.22533e-64 5.94593e-64 1.57226e-63 4.11406e-63 1.06518e-62 2.7286e-62 6.91491e-62 1.7335e-61 4.29844e-61 1.05417e-60 2.55669e-60 6.13165e-60 1.454e-59 3.40879e-59 7.90023e-59 1.80985e-58 4.09794e-58 9.1699e-58 2.02767e-57 4.43013e-57 9.56272e-57 2.03913e-56 4.29501e-56 8.93495e-56 1.83562e-55 3.72385e-55 7.45887e-55 1.47496e-54 2.87915e-54 5.54734e-54 1.05485e-53 1.97943e-53 3.6651e-53 6.69548e-53 1.20666e-52 2.14511e-52 3.76126e-52 6.50418e-52 1.10914e-51 1.86499e-51 3.09186e-51 5.05339e-51 8.14192e-51 1.29307e-50 2.0241e-50 3.12272e-50 4.74785e-50 7.11383e-50 1.05035e-49 1.52818e-49 2.19086e-49 3.09494e-49 4.30811e-49 5.90919e-49 7.98713e-49 1.06389e-48 1.39663e-48 1.8071e-48 2.3049e-48 2.89835e-48 3.5938e-48 4.39491e-48 5.30197e-48 6.31148e-48 7.41589e-48 8.60357e-48 9.85914e-48 1.11641e-47 1.24976e-47 1.38374e-47 1.51612e-47 1.64475e-47 1.76765e-47 1.88314e-47 1.98982e-47 2.08666e-47 2.17299e-47 2.24846e-47 2.31303e-47 2.36692e-47 2.41053e-47 2.44445e-47 2.46935e-47 2.48598e-47 2.49514e-47 2.49762e-47 2.49421e-47 2.48569e-47 2.47282e-47 2.4563e-47 2.43683e-47 2.41507e-47 2.39163e-47 2.36713e-47 2.34213e-47 2.31719e-47 2.29283e-47 2.26958e-47 2.2479e-47 2.22826e-47 2.21106e-47 2.19667e-47 2.18537e-47 2.17737e-47 2.17279e-47 2.17161e-47 2.17368e-47 2.17874e-47 2.18634e-47 2.19591e-47 2.20676e-47 2.21811e-47 2.22912e-47 2.23896e-47 2.24686e-47 2.25214e-47 2.25433e-47 2.25312e-47 2.24847e-47 2.24056e-47 2.22977e-47 2.21669e-47 2.20202e-47 2.18651e-47 2.17091e-47 2.1559e-47 2.14203e-47 2.12968e-47 2.11907e-47 2.1102e-47 2.10296e-47 2.09708e-47 2.09223e-47 2.08806e-47 2.08422e-47 2.08044e-47 2.07656e-47 2.07251e-47 2.06838e-47 2.06438e-47 2.06081e-47 2.05807e-47 2.05663e-47 2.05694e-47 2.05947e-47 2.06462e-47 2.07273e-47 2.08402e-47 2.09861e-47 2.11647e-47 2.13745e-47 2.16121e-47 2.18729e-47 2.21503e-47 2.24359e-47 2.27194e-47 2.29886e-47 2.32291e-47 2.34251e-47 2.3559e-47 2.36125e-47 2.35672e-47 2.34056e-47 2.3112e-47 2.26738e-47 2.20828e-47 2.13358e-47 2.04356e-47 1.93912e-47 1.82178e-47 1.6936e-47 1.55713e-47 1.41523e-47 1.27096e-47 1.12737e-47 9.87369e-48 8.53555e-48 7.28117e-48 6.12747e-48 5.08601e-48 4.16301e-48 3.3597e-48 2.67298e-48 2.09626e-48 1.62033e-48 1.23435e-48 9.26676e-49 6.85565e-49 4.99793e-49 3.59043e-49 2.54165e-49 1.77297e-49 1.21875e-49 8.25588e-50 5.51148e-50 3.62616e-50 2.35139e-50 1.50288e-50 9.46838e-51 5.88044e-51 3.60047e-51 2.17349e-51 1.29373e-51 7.59368e-52 4.39566e-52 2.50956e-52 1.41324e-52 7.85091e-53 4.30281e-53 2.32678e-53 1.24158e-53 6.53811e-54 3.39808e-54 1.74326e-54 8.82847e-55 4.41413e-55 2.17915e-55 1.06232e-55 5.11439e-56 2.43183e-56 1.14197e-56 5.29281e-57 2.41219e-57 1.05942e-57 3.97358e-58 0 
0 4.49563e-78 1.69826e-77 5.927e-77 2.04016e-76 6.96026e-76 2.3543e-75 7.8952e-75 2.62483e-74 8.6507e-74 2.82608e-73 9.15112e-73 2.93692e-72 9.34134e-72 2.9444e-71 9.19659e-71 2.84622e-70 8.72756e-70 2.65136e-69 7.97931e-69 2.37877e-68 7.02421e-68 2.05433e-67 5.95025e-67 1.70672e-66 4.84749e-66 1.36322e-65 3.79555e-65 1.04619e-64 2.85452e-64 7.70926e-64 2.06068e-63 5.45119e-63 1.42698e-62 3.69616e-62 9.47229e-62 2.40154e-61 6.02308e-61 1.49417e-60 3.66604e-60 8.89541e-60 2.13436e-59 5.06362e-59 1.18769e-58 2.75394e-58 6.31206e-58 1.42991e-57 3.20129e-57 7.08233e-57 1.54817e-56 3.34353e-56 7.13334e-56 1.50327e-55 3.12889e-55 6.43143e-55 1.3054e-54 2.61608e-54 5.17587e-54 1.01087e-53 1.94868e-53 3.70741e-53 6.96051e-53 1.28946e-52 2.35678e-52 4.24949e-52 7.55809e-52 1.32587e-51 2.29385e-51 3.91341e-51 6.58318e-51 1.09185e-50 1.78527e-50 2.87752e-50 4.57165e-50 7.15873e-50 1.10479e-49 1.68026e-49 2.51827e-49 3.71912e-49 5.41222e-49 7.76064e-49 1.09648e-48 1.52647e-48 2.09394e-48 2.8304e-48 3.77013e-48 4.94907e-48 6.40309e-48 8.1659e-48 1.02667e-47 1.27274e-47 1.55605e-47 1.87663e-47 2.23317e-47 2.62291e-47 3.04166e-47 3.4839e-47 3.94302e-47 4.41161e-47 4.8818e-47 5.34569e-47 5.79572e-47 6.22502e-47 6.62766e-47 6.9989e-47 7.33522e-47 7.63437e-47 7.89529e-47 8.11796e-47 8.30325e-47 8.45273e-47 8.5685e-47 8.65299e-47 8.70889e-47 8.73895e-47 8.746e-47 8.73278e-47 8.702e-47 8.65624e-47 8.59798e-47 8.5296e-47 8.45335e-47 8.3714e-47 8.2858e-47 8.19854e-47 8.11153e-47 8.02661e-47 7.94555e-47 7.87001e-47 7.80157e-47 7.74166e-47 7.69153e-47 7.6522e-47 7.62438e-47 7.60847e-47 7.60444e-47 7.61178e-47 7.6295e-47 7.65612e-47 7.68963e-47 7.72762e-47 7.76735e-47 7.8059e-47 7.84037e-47 7.86804e-47 7.8866e-47 7.89433e-47 7.89021e-47 7.87407e-47 7.84652e-47 7.80896e-47 7.76338e-47 7.71225e-47 7.65821e-47 7.60388e-47 7.55162e-47 7.50335e-47 7.46042e-47 7.42352e-47 7.39274e-47 7.36762e-47 7.34724e-47 7.33045e-47 7.31597e-47 7.30263e-47 7.28949e-47 7.27593e-47 7.26178e-47 7.24731e-47 7.23325e-47 7.2207e-47 7.21106e-47 7.20591e-47 7.20692e-47 7.21568e-47 7.23363e-47 7.26192e-47 7.30138e-47 7.3524e-47 7.41492e-47 7.48838e-47 7.5717e-47 7.66323e-47 7.76071e-47 7.86126e-47 7.9613e-47 8.05657e-47 8.1421e-47 8.21232e-47 8.2611e-47 8.28202e-47 8.26858e-47 8.21455e-47 8.11438e-47 7.96357e-47 7.7591e-47 7.49975e-47 7.18638e-47 6.82204e-47 6.41196e-47 5.96335e-47 5.48508e-47 4.98724e-47 4.48054e-47 3.97578e-47 3.48321e-47 3.01208e-47 2.57015e-47 2.16345e-47 1.79614e-47 1.47045e-47 1.18689e-47 9.44407e-48 7.40705e-48 5.7257e-48 4.36188e-48 3.2746e-48 2.42248e-48 1.76592e-48 1.26847e-48 8.97827e-49 6.26194e-49 4.30368e-49 2.91472e-49 1.94536e-49 1.27957e-49 8.29506e-50 5.30015e-50 3.33811e-50 2.07246e-50 1.26848e-50 7.65456e-51 4.55447e-51 2.67223e-51 1.54621e-51 8.82388e-52 4.96697e-52 2.75807e-52 1.51093e-52 8.16679e-53 4.35584e-53 2.29271e-53 1.19105e-53 6.1074e-54 3.09154e-54 1.54501e-54 7.62375e-55 3.71478e-55 1.78758e-55 8.49574e-56 3.98769e-56 1.84736e-56 8.41555e-57 3.69457e-57 1.38529e-57 0 
0 1.53051e-77 5.78265e-77 2.0186e-76 6.94987e-76 2.37157e-75 8.02371e-75 2.69141e-74 8.95006e-74 2.95043e-73 9.64121e-73 3.12275e-72 1.00247e-71 3.18942e-71 1.0056e-70 3.14182e-70 9.72642e-70 2.98339e-69 9.06615e-69 2.72935e-68 8.13934e-68 2.40425e-67 7.03398e-67 2.03807e-66 5.84792e-66 1.66156e-65 4.6744e-65 1.30197e-64 3.59007e-64 9.7994e-64 2.64761e-63 7.07996e-63 1.87367e-62 4.90686e-62 1.27153e-61 3.26003e-61 8.26896e-61 2.0748e-60 5.14944e-60 1.26404e-59 3.06856e-59 7.36625e-59 1.74845e-58 4.10308e-58 9.51872e-58 2.1828e-57 4.94737e-57 1.10819e-56 2.45297e-56 5.3649e-56 1.15926e-55 2.47456e-55 5.21764e-55 1.08658e-54 2.23467e-54 4.5382e-54 9.09966e-54 1.80133e-53 3.51997e-53 6.78916e-53 1.29235e-52 2.42762e-52 4.49959e-52 8.22833e-52 1.4844e-51 2.64147e-51 4.63607e-51 8.02456e-51 1.36967e-50 2.30513e-50 3.82486e-50 6.25662e-50 1.00886e-49 1.60344e-49 2.51174e-49 3.87763e-49 5.89929e-49 8.84406e-49 1.30648e-48 1.90168e-48 2.72738e-48 3.85406e-48 5.36612e-48 7.36165e-48 9.95124e-48 1.32553e-47 1.73996e-47 2.25097e-47 2.87031e-47 3.60811e-47 4.47192e-47 5.46588e-47 6.58989e-47 7.83905e-47 9.20338e-47 1.06679e-46 1.22129e-46 1.38151e-46 1.54481e-46 1.70844e-46 1.86964e-46 2.02576e-46 2.17441e-46 2.31358e-46 2.44162e-46 2.55737e-46 2.66008e-46 2.74945e-46 2.8255e-46 2.88859e-46 2.93931e-46 2.9784e-46 3.00675e-46 3.0253e-46 3.03501e-46 3.03686e-46 3.0318e-46 3.02076e-46 3.00462e-46 2.98423e-46 2.96041e-46 2.93392e-46 2.90549e-46 2.87584e-46 2.84564e-46 2.81555e-46 2.78619e-46 2.75817e-46 2.73206e-46 2.70842e-46 2.68773e-46 2.67042e-46 2.65684e-46 2.64725e-46 2.64178e-46 2.64041e-46 2.64298e-46 2.64915e-46 2.6584e-46 2.67003e-46 2.68322e-46 2.69701e-46 2.71039e-46 2.72237e-46 2.73198e-46 2.73845e-46 2.74116e-46 2.73977e-46 2.73421e-46 2.7247e-46 2.71173e-46 2.69599e-46 2.67832e-46 2.65965e-46 2.64089e-46 2.62285e-46 2.60619e-46 2.59139e-46 2.57868e-46 2.56808e-46 2.55944e-46 2.55244e-46 2.54667e-46 2.5417e-46 2.53711e-46 2.53257e-46 2.52787e-46 2.52297e-46 2.51794e-46 2.51305e-46 2.50867e-46 2.5053e-46 2.50349e-46 2.50381e-46 2.50682e-46 2.51302e-46 2.52281e-46 2.53648e-46 2.55417e-46 2.57587e-46 2.60139e-46 2.63036e-46 2.66222e-46 2.6962e-46 2.73132e-46 2.76634e-46 2.7998e-46 2.82998e-46 2.85495e-46 2.87259e-46 2.88066e-46 2.87688e-46 2.85907e-46 2.82527e-46 2.77387e-46 2.70379e-46 2.61457e-46 2.50644e-46 2.38044e-46 2.23836e-46 2.08268e-46 1.91648e-46 1.74326e-46 1.56678e-46 1.39079e-46 1.21891e-46 1.05439e-46 8.99953e-47 7.57745e-47 6.29237e-47 5.15241e-47 4.15949e-47 3.31012e-47 2.59639e-47 2.00714e-47 1.52909e-47 1.14792e-47 8.49172e-48 6.18973e-48 4.44566e-48 3.14621e-48 2.19398e-48 1.50757e-48 1.0208e-48 6.81136e-49 4.47901e-49 2.90275e-49 1.85414e-49 1.16737e-49 7.24507e-50 4.43279e-50 2.67392e-50 1.59035e-50 9.32715e-51 5.39459e-51 3.07724e-51 1.73141e-51 9.60985e-52 5.26205e-52 2.84289e-52 1.51557e-52 7.97344e-53 4.14016e-53 2.12194e-53 1.0736e-53 5.36273e-54 2.64492e-54 1.28814e-54 6.19565e-55 2.94315e-55 1.38077e-55 6.39362e-56 2.91123e-56 1.27754e-56 4.78864e-57 0 
0 5.16586e-77 1.95216e-76 6.81605e-76 2.34724e-75 8.0116e-75 2.7112e-74 9.0965e-74 3.02573e-73 9.97706e-73 3.2611e-72 1.05655e-71 3.39271e-71 1.07972e-70 3.40525e-70 1.06423e-69 3.29567e-69 1.0112e-68 3.0739e-68 9.257e-68 2.76151e-67 8.15995e-67 2.38815e-66 6.92207e-66 1.98691e-65 5.64749e-65 1.5894e-64 4.42871e-64 1.22167e-63 3.336e-63 9.01698e-63 2.41224e-62 6.38661e-62 1.67329e-61 4.33797e-61 1.1127e-60 2.82364e-60 7.08824e-60 1.76006e-59 4.32252e-59 1.04985e-58 2.52146e-58 5.98793e-58 1.40591e-57 3.26324e-57 7.48705e-57 1.69785e-56 3.80515e-56 8.42719e-56 1.84411e-55 3.98696e-55 8.5153e-55 1.79645e-54 3.74321e-54 7.7026e-54 1.56513e-53 3.14004e-53 6.21934e-53 1.216e-52 2.34666e-52 4.46944e-52 8.40025e-52 1.55783e-51 2.85032e-51 5.14473e-51 9.15974e-51 1.60846e-50 2.78547e-50 4.75671e-50 8.00922e-50 1.32957e-49 2.17583e-49 3.50994e-49 5.5808e-49 8.74547e-49 1.35061e-48 2.05544e-48 3.08239e-48 4.55467e-48 6.63125e-48 9.51243e-48 1.34443e-47 1.87214e-47 2.56857e-47 3.47229e-47 4.62521e-47 6.07108e-47 7.85344e-47 1.0013e-46 1.25845e-46 1.55937e-46 1.90544e-46 2.29652e-46 2.73081e-46 3.20473e-46 3.71294e-46 4.24851e-46 4.80319e-46 5.3678e-46 5.93271e-46 6.48829e-46 7.02544e-46 7.53594e-46 8.01286e-46 8.45071e-46 8.84559e-46 9.19513e-46 9.4984e-46 9.75574e-46 9.96851e-46 1.01389e-45 1.02695e-45 1.03636e-45 1.04243e-45 1.04551e-45 1.04593e-45 1.04402e-45 1.04009e-45 1.03444e-45 1.02736e-45 1.01912e-45 1.00999e-45 1.00021e-45 9.90024e-46 9.79656e-46 9.69331e-46 9.59262e-46 9.49657e-46 9.40712e-46 9.3261e-46 9.25522e-46 9.19594e-46 9.14946e-46 9.11666e-46 9.09799e-46 9.09341e-46 9.10235e-46 9.12364e-46 9.15549e-46 9.19555e-46 9.24095e-46 9.28844e-46 9.33454e-46 9.37578e-46 9.40895e-46 9.43128e-46 9.44071e-46 9.43606e-46 9.41709e-46 9.38456e-46 9.34012e-46 9.28618e-46 9.22564e-46 9.16168e-46 9.09741e-46 9.03563e-46 8.97864e-46 8.92801e-46 8.88458e-46 8.84842e-46 8.81896e-46 8.79511e-46 8.77546e-46 8.7585e-46 8.74282e-46 8.72728e-46 8.71116e-46 8.69428e-46 8.67696e-46 8.66007e-46 8.64494e-46 8.63325e-46 8.62691e-46 8.6279e-46 8.63816e-46 8.65939e-46 8.69301e-46 8.73999e-46 8.80086e-46 8.87557e-46 8.96352e-46 9.06346e-46 9.1735e-46 9.29105e-46 9.41274e-46 9.5344e-46 9.65102e-46 9.75674e-46 9.84492e-46 9.90824e-46 9.93896e-46 9.9292e-46 9.87134e-46 9.7585e-46 9.58505e-46 9.34705e-46 9.04274e-46 8.67287e-46 8.2408e-46 7.75259e-46 7.21676e-46 6.64387e-46 6.04603e-46 5.4362e-46 4.8275e-46 4.23246e-46 3.66241e-46 3.12694e-46 2.63355e-46 2.18744e-46 1.79152e-46 1.44652e-46 1.15129e-46 9.03135e-47 6.9821e-47 5.31927e-47 3.99324e-47 2.95385e-47 2.15293e-47 1.54613e-47 1.09404e-47 7.62788e-48 5.24036e-48 3.54751e-48 2.3665e-48 1.55573e-48 1.00793e-48 6.43605e-49 4.05076e-49 2.51311e-49 1.53702e-49 9.26781e-50 5.50987e-50 3.23008e-50 1.86737e-50 1.06473e-50 5.98793e-51 3.32193e-51 1.81812e-51 9.81786e-52 5.23142e-52 2.75091e-52 1.42768e-52 7.3136e-53 3.69846e-53 1.84649e-53 9.10239e-54 4.43088e-54 2.13007e-54 1.01135e-54 4.74239e-55 2.19486e-55 9.98917e-56 4.38165e-56 1.64185e-56 0 
0 1.72862e-76 6.53361e-76 2.28175e-75 7.8595e-75 2.68325e-74 9.08262e-74 3.04813e-73 1.01415e-72 3.34496e-72 1.09363e-71 3.54419e-71 1.13841e-70 3.62402e-70 1.14331e-69 3.57424e-69 1.1072e-68 3.39831e-68 1.03338e-67 3.11305e-67 9.28995e-67 2.74605e-66 8.03969e-66 2.33117e-65 6.69393e-65 1.90338e-64 5.35888e-64 1.4938e-63 4.12237e-63 1.12617e-62 3.04524e-62 8.15024e-62 2.1588e-61 5.65859e-61 1.46765e-60 3.76632e-60 9.56211e-60 2.40155e-59 5.96615e-59 1.46595e-58 3.56227e-58 8.56004e-58 2.03388e-57 4.77785e-57 1.10957e-56 2.54713e-56 5.77932e-56 1.29595e-55 2.8717e-55 6.28762e-55 1.36014e-54 2.90663e-54 6.13554e-54 1.27917e-53 2.63374e-53 5.3547e-53 1.07491e-52 2.13025e-52 4.16743e-52 8.04704e-52 1.53351e-51 2.88384e-51 5.35112e-51 9.7962e-51 1.76915e-50 3.15152e-50 5.53704e-50 9.59382e-50 1.63915e-49 2.76132e-49 4.58609e-49 7.50856e-49 1.21177e-48 1.92752e-48 3.02174e-48 4.66834e-48 7.10702e-48 1.06612e-47 1.57579e-47 2.2948e-47 3.29257e-47 4.65436e-47 6.48214e-47 8.89437e-47 1.20244e-46 1.6017e-46 2.10233e-46 2.71931e-46 3.46659e-46 4.35606e-46 5.39643e-46 6.59214e-46 7.94245e-46 9.44074e-46 1.10743e-45 1.28241e-45 1.46661e-45 1.65713e-45 1.85079e-45 2.04424e-45 2.23418e-45 2.41747e-45 2.59132e-45 2.75337e-45 2.9018e-45 3.03533e-45 3.15321e-45 3.25518e-45 3.34143e-45 3.41248e-45 3.46911e-45 3.5123e-45 3.54314e-45 3.56276e-45 3.57233e-45 3.57299e-45 3.56584e-45 3.55194e-45 3.53232e-45 3.50793e-45 3.47968e-45 3.44845e-45 3.41508e-45 3.38035e-45 3.34505e-45 3.30991e-45 3.27567e-45 3.24301e-45 3.21261e-45 3.18508e-45 3.16099e-45 3.14086e-45 3.12508e-45 3.11396e-45 3.10764e-45 3.10612e-45 3.1092e-45 3.11649e-45 3.12737e-45 3.14106e-45 3.15656e-45 3.17278e-45 3.18853e-45 3.20262e-45 3.21397e-45 3.22162e-45 3.22488e-45 3.22333e-45 3.21691e-45 3.20587e-45 3.19078e-45 3.17245e-45 3.15187e-45 3.13014e-45 3.1083e-45 3.08732e-45 3.06798e-45 3.05081e-45 3.03609e-45 3.02385e-45 3.01389e-45 3.00584e-45 2.9992e-45 2.99347e-45 2.98816e-45 2.98288e-45 2.97739e-45 2.97163e-45 2.96571e-45 2.95993e-45 2.95474e-45 2.95072e-45 2.94852e-45 2.94882e-45 2.95229e-45 2.9595e-45 2.97095e-45 2.98697e-45 3.00774e-45 3.03326e-45 3.06333e-45 3.09753e-45 3.13524e-45 3.17558e-45 3.21743e-45 3.25937e-45 3.29972e-45 3.33648e-45 3.36739e-45 3.38995e-45 3.40151e-45 3.39936e-45 3.38085e-45 3.34361e-45 3.28564e-45 3.20556e-45 3.1027e-45 2.97726e-45 2.83035e-45 2.664e-45 2.48108e-45 2.28521e-45 2.08054e-45 1.87151e-45 1.66263e-45 1.45826e-45 1.2623e-45 1.07809e-45 9.08237e-46 7.54576e-46 6.1813e-46 4.99182e-46 3.97355e-46 3.11737e-46 2.41017e-46 1.83622e-46 1.37845e-46 1.01961e-46 7.43089e-47 5.33587e-47 3.77511e-47 2.6316e-47 1.80753e-47 1.22333e-47 8.15854e-48 5.36182e-48 3.47273e-48 2.21674e-48 1.39468e-48 8.64942e-49 5.2879e-49 3.18714e-49 1.894e-49 1.10984e-49 6.41327e-50 3.65497e-50 2.05455e-50 1.13925e-50 6.23212e-51 3.36368e-51 1.79142e-51 9.41528e-52 4.88389e-52 2.50058e-52 1.26388e-52 6.30678e-53 3.10735e-53 1.51182e-53 7.26404e-54 3.44717e-54 1.6156e-54 7.47352e-55 3.39965e-55 1.49055e-55 5.58335e-56 0 
0 5.73427e-76 2.1678e-75 7.57239e-75 2.60894e-74 8.90916e-74 3.01646e-73 1.01259e-72 3.3699e-72 1.11179e-71 3.63603e-71 1.17868e-70 3.78711e-70 1.20595e-69 3.80572e-69 1.19013e-68 3.68791e-68 1.1323e-67 3.44433e-67 1.03796e-66 3.09859e-66 9.16257e-66 2.68355e-65 7.78413e-65 2.23607e-64 6.36065e-64 1.79154e-63 4.99602e-63 1.37931e-62 3.76967e-62 1.01979e-61 2.73058e-61 7.23593e-61 1.89754e-60 4.92392e-60 1.26419e-59 3.21116e-59 8.06892e-59 2.00556e-58 4.93041e-58 1.19871e-57 2.882e-57 6.85133e-57 1.61034e-56 3.74177e-56 8.59437e-56 1.95111e-55 4.37762e-55 9.70595e-55 2.12636e-54 4.60243e-54 9.84113e-54 2.07857e-53 4.33608e-53 8.93302e-53 1.81727e-52 3.65017e-52 7.23823e-52 1.41686e-51 2.73749e-51 5.21987e-51 9.82199e-51 1.82358e-50 3.34032e-50 6.0359e-50 1.07582e-49 1.89119e-49 3.27856e-49 5.60452e-49 9.4462e-49 1.56963e-48 2.57109e-48 4.15126e-48 6.60613e-48 1.03605e-47 1.60123e-47 2.43857e-47 3.65928e-47 5.41023e-47 7.8809e-47 1.131e-46 1.59907e-46 2.22736e-46 3.05655e-46 4.13243e-46 5.50465e-46 7.22491e-46 9.34442e-46 1.19107e-45 1.49639e-45 1.85333e-45 2.2633e-45 2.72595e-45 3.23887e-45 3.79754e-45 4.39537e-45 5.02388e-45 5.67311e-45 6.33202e-45 6.98916e-45 7.63317e-45 8.25341e-45 8.84044e-45 9.38638e-45 9.88517e-45 1.03327e-44 1.07265e-44 1.10662e-44 1.13524e-44 1.15873e-44 1.17736e-44 1.19148e-44 1.20147e-44 1.20771e-44 1.21061e-44 1.21056e-44 1.20791e-44 1.20304e-44 1.19627e-44 1.18793e-44 1.17832e-44 1.16773e-44 1.15643e-44 1.14469e-44 1.13277e-44 1.12091e-44 1.10936e-44 1.09835e-44 1.0881e-44 1.07882e-44 1.0707e-44 1.06392e-44 1.05861e-44 1.05487e-44 1.05275e-44 1.05225e-44 1.0533e-44 1.05578e-44 1.05947e-44 1.06411e-44 1.06936e-44 1.07485e-44 1.08019e-44 1.08496e-44 1.08881e-44 1.09141e-44 1.09253e-44 1.09202e-44 1.08987e-44 1.08615e-44 1.08107e-44 1.07489e-44 1.06795e-44 1.06063e-44 1.05327e-44 1.04621e-44 1.0397e-44 1.03392e-44 1.02898e-44 1.02487e-44 1.02153e-44 1.01883e-44 1.01661e-44 1.01469e-44 1.0129e-44 1.01113e-44 1.00927e-44 1.00732e-44 1.00532e-44 1.00335e-44 1.00159e-44 1.00022e-44 9.9946e-45 9.99551e-45 1.00071e-44 1.00314e-44 1.00701e-44 1.01243e-44 1.01946e-44 1.0281e-44 1.0383e-44 1.04991e-44 1.06273e-44 1.07647e-44 1.09075e-44 1.1051e-44 1.11895e-44 1.13164e-44 1.1424e-44 1.15038e-44 1.15468e-44 1.15437e-44 1.14856e-44 1.1364e-44 1.11723e-44 1.09054e-44 1.05608e-44 1.01391e-44 9.64387e-45 9.08178e-45 8.46255e-45 7.79837e-45 7.10331e-45 6.39257e-45 5.68157e-45 4.98517e-45 4.31685e-45 3.68811e-45 3.10799e-45 2.58283e-45 2.11626e-45 1.70933e-45 1.36084e-45 1.06773e-45 8.25562e-46 6.28979e-46 4.7217e-46 3.49236e-46 2.54499e-46 1.82725e-46 1.29257e-46 9.00874e-47 6.18637e-47 4.18587e-47 2.79084e-47 1.8336e-47 1.18719e-47 7.57551e-48 4.76443e-48 2.9536e-48 1.80497e-48 1.08743e-48 6.45934e-49 3.78328e-49 2.18517e-49 1.24474e-49 6.99355e-50 3.87599e-50 2.11924e-50 1.14323e-50 6.08542e-51 3.19666e-51 1.65729e-51 8.48093e-52 4.28427e-52 2.13671e-52 1.05219e-52 5.11648e-53 2.45708e-53 1.16539e-53 5.45902e-54 2.52394e-54 1.14754e-54 5.02897e-55 1.8831e-55 0 
0 1.88562e-75 7.12988e-75 2.49114e-74 8.58491e-74 2.93237e-73 9.93099e-73 3.3346e-72 1.11006e-71 3.66333e-71 1.19841e-70 3.886e-70 1.24895e-69 3.97834e-69 1.25587e-68 3.92868e-68 1.2178e-67 3.74028e-67 1.13815e-66 3.4311e-66 1.02464e-65 3.03102e-65 8.88069e-65 2.57701e-64 7.40568e-64 2.10745e-63 5.93831e-63 1.6567e-62 4.57584e-62 1.25113e-61 3.38617e-61 9.07091e-61 2.40487e-60 6.30952e-60 1.63805e-59 4.20768e-59 1.06932e-58 2.68834e-58 6.68543e-58 1.64439e-57 4.00009e-57 9.62238e-57 2.28877e-56 5.38253e-56 1.25139e-55 2.87591e-55 6.53273e-55 1.46657e-54 3.25356e-54 7.13207e-54 1.54464e-53 3.30481e-53 6.9844e-53 1.4579e-52 3.00534e-52 6.11761e-52 1.22954e-51 2.43966e-51 4.7785e-51 9.23811e-51 1.7626e-50 3.31862e-50 6.16516e-50 1.12997e-49 2.04303e-49 3.64355e-49 6.40866e-49 1.11162e-48 1.90129e-48 3.20624e-48 5.33039e-48 8.73562e-48 1.41111e-47 2.24659e-47 3.52488e-47 5.44993e-47 8.30293e-47 1.24635e-46 1.84329e-46 2.68579e-46 3.85533e-46 5.45195e-46 7.59521e-46 1.04239e-45 1.40939e-45 1.87742e-45 2.46404e-45 3.18662e-45 4.06119e-45 5.10126e-45 6.31647e-45 7.71136e-45 9.28426e-45 1.10266e-44 1.29224e-44 1.49488e-44 1.70765e-44 1.92711e-44 2.1495e-44 2.37091e-44 2.58747e-44 2.7956e-44 2.99213e-44 3.17445e-44 3.34058e-44 3.48919e-44 3.61957e-44 3.73162e-44 3.82568e-44 3.90252e-44 3.96313e-44 4.00875e-44 4.04066e-44 4.06022e-44 4.06877e-44 4.06759e-44 4.05793e-44 4.04096e-44 4.01781e-44 3.9895e-44 3.95706e-44 3.92141e-44 3.88347e-44 3.84411e-44 3.80418e-44 3.76449e-44 3.72585e-44 3.68903e-44 3.65477e-44 3.62376e-44 3.59665e-44 3.57399e-44 3.55626e-44 3.54378e-44 3.53673e-44 3.53511e-44 3.53868e-44 3.54701e-44 3.55942e-44 3.575e-44 3.59264e-44 3.6111e-44 3.62903e-44 3.64509e-44 3.65804e-44 3.66681e-44 3.6706e-44 3.66895e-44 3.66179e-44 3.64938e-44 3.63239e-44 3.61174e-44 3.58856e-44 3.56408e-44 3.5395e-44 3.51591e-44 3.49418e-44 3.47493e-44 3.45845e-44 3.44478e-44 3.43368e-44 3.42471e-44 3.41734e-44 3.41095e-44 3.40501e-44 3.39908e-44 3.39288e-44 3.38633e-44 3.37958e-44 3.37296e-44 3.36701e-44 3.36237e-44 3.35979e-44 3.36006e-44 3.36392e-44 3.37204e-44 3.38499e-44 3.40317e-44 3.42677e-44 3.45583e-44 3.49013e-44 3.52925e-44 3.57248e-44 3.61889e-44 3.66724e-44 3.71596e-44 3.76317e-44 3.80663e-44 3.84379e-44 3.8718e-44 3.88762e-44 3.8881e-44 3.87018e-44 3.83101e-44 3.76824e-44 3.68012e-44 3.56576e-44 3.42525e-44 3.25973e-44 3.07142e-44 2.86354e-44 2.64017e-44 2.40607e-44 2.16636e-44 1.92628e-44 1.69088e-44 1.46476e-44 1.25186e-44 1.05527e-44 8.77199e-45 7.18904e-45 5.80779e-45 4.62441e-45 3.62875e-45 2.8059e-45 2.13782e-45 1.60482e-45 1.18693e-45 8.64873e-46 6.20882e-46 4.39133e-46 3.05999e-46 2.10084e-46 1.42112e-46 9.47231e-47 6.22141e-47 4.02678e-47 2.56858e-47 1.61482e-47 1.00067e-47 6.11254e-48 3.68097e-48 2.18549e-48 1.27945e-48 7.38632e-49 4.2054e-49 2.36158e-49 1.30817e-49 7.14876e-50 3.85437e-50 2.05058e-50 1.07658e-50 5.57842e-51 2.8531e-51 1.44049e-51 7.18024e-52 3.53385e-52 1.71746e-52 8.24317e-53 3.90759e-53 1.82943e-53 8.45366e-54 3.84155e-54 1.68272e-54 6.29868e-55 0 