# vtk DataFile Version 3.0
Gray-Scott Simulation Output
ASCII
DATASET STRUCTURED_POINTS
DIMENSIONS 256 256 1
SPACING 1.0 1.0 1.0
ORIGIN 0 0 0
POINT_DATA 65536
SCALARS u double
LOOKUP_TABLE default
0 0 0 0 0 0 0 0 0 0 0 0 0 0 0 0 0 0 0 0 0 0 0 0 0 0 0 0 0 0 0 0 0 0 0 0 0 0 0 0 0 0 0 0 0 0 0 0 0 0 0 0 0 0 0 0 0 0 0 0 0 0 0 0 0 0 0 0 0 0 0 0 0 0 0 0 0 0 0 0 0 0 0 0 0 0 0 0 0 0 0 0 0 0 0 0 0 0 0 0 0 0 0 0 0 0 0 0 0 0 0 0 0 0 0 0 0 0 0 0 0 0 0 0 0 0 0 0 0 0 0 0 0 0 0 0 0 0 0 0 0 0 0 0 0 0 0 0 0 0 0 0 0 0 0 0 0 0 0 0 0 0 0 0 0 0 0 0 0 0 0 0 0 0 0 0 0 0 0 0 0 0 0 0 0 0 0 0 0 0 0 0 0 0 0 0 0 0 0 0 0 0 0 0 0 0 0 0 0 0 0 0 0 0 0 0 0 0 0 0 0 0 0 0 0 0 0 0 0 0 0 0 0 0 0 0 0 0 0 0 0 0 0 0 0 0 0 0 0 0 0 0 0 0 0 0 
0 7.26044e-74 2.35575e-73 6.88113e-73 1.97371e-72 5.61089e-72 1.58251e-71 4.42853e-71 1.22958e-70 3.38702e-70 9.25594e-70 2.50924e-69 6.74781e-69 1.79994e-68 4.76219e-68 1.24964e-67 3.25213e-67 8.39332e-67 2.14812e-66 5.45153e-66 1.37179e-65 3.42251e-65 8.46566e-65 2.07593e-64 5.04631e-64 1.21596e-63 2.90417e-63 6.87472e-63 1.61285e-62 3.74979e-62 8.63915e-62 1.97222e-61 4.46103e-61 9.9972e-61 2.21951e-60 4.8814e-60 1.06343e-59 2.29466e-59 4.90395e-59 1.03791e-58 2.17536e-58 4.51467e-58 9.27714e-58 1.8874e-57 3.80139e-57 7.57911e-57 1.49575e-56 2.92167e-56 5.64808e-56 1.08053e-55 2.04552e-55 3.83149e-55 7.10062e-55 1.30183e-54 2.36107e-54 4.23571e-54 7.51572e-54 1.31889e-53 2.2888e-53 3.92765e-53 6.66424e-53 1.11796e-52 1.8541e-52 3.03971e-52 4.92599e-52 7.89019e-52 1.24906e-51 1.95411e-51 3.02106e-51 4.61514e-51 6.96628e-51 1.03892e-50 1.53075e-50 2.22817e-50 3.20401e-50 4.55118e-50 6.38593e-50 8.85079e-50 1.21168e-49 1.63848e-49 2.18844e-49 2.88717e-49 3.76236e-49 4.84297e-49 6.15804e-49 7.73528e-49 9.59935e-49 1.177e-48 1.42601e-48 1.7074e-48 2.02057e-48 2.36382e-48 2.73423e-48 3.12776e-48 3.53928e-48 3.96278e-48 4.39158e-48 4.81866e-48 5.23695e-48 5.63966e-48 6.02063e-48 6.37455e-48 6.69718e-48 6.98548e-48 7.23768e-48 7.45317e-48 7.6325e-48 7.7771e-48 7.8892e-48 7.97153e-48 8.02715e-48 8.05924e-48 8.07097e-48 8.06535e-48 8.04514e-48 8.01286e-48 7.97069e-48 7.92056e-48 7.86415e-48 7.80292e-48 7.73817e-48 7.67109e-48 7.6028e-48 7.53434e-48 7.46675e-48 7.40102e-48 7.33815e-48 7.27909e-48 7.22476e-48 7.176e-48 7.13356e-48 7.09804e-48 7.06991e-48 7.0494e-48 7.03652e-48 7.03105e-48 7.03247e-48 7.04002e-48 7.05266e-48 7.06916e-48 7.08808e-48 7.10791e-48 7.12708e-48 7.1441e-48 7.1576e-48 7.16645e-48 7.16979e-48 7.16712e-48 7.1583e-48 7.14355e-48 7.12343e-48 7.09877e-48 7.07061e-48 7.0401e-48 7.0084e-48 6.97662e-48 6.94571e-48 6.91644e-48 6.88932e-48 6.86464e-48 6.84246e-48 6.82266e-48 6.805e-48 6.78918e-48 6.77492e-48 6.76201e-48 6.75037e-48 6.74009e-48 6.73146e-48 6.72496e-48 6.72126e-48 6.72116e-48 6.72559e-48 6.73552e-48 6.75194e-48 6.77575e-48 6.80776e-48 6.8486e-48 6.89869e-48 6.95815e-48 7.0268e-48 7.10404e-48 7.18888e-48 7.27983e-48 7.37487e-48 7.47142e-48 7.56629e-48 7.65575e-48 7.73549e-48 7.80074e-48 7.84639e-48 7.86717e-48 7.85785e-48 7.81351e-48 7.72978e-48 7.60321e-48 7.43141e-48 7.21341e-48 6.9497e-48 6.6424e-48 6.29519e-48 5.91326e-48 5.50302e-48 5.0719e-48 4.62795e-48 4.1795e-48 3.73471e-48 3.30127e-48 2.88603e-48 2.49479e-48 2.13209e-48 1.80115e-48 1.50387e-48 1.24091e-48 1.01181e-48 8.15174e-49 6.48883e-49 5.10298e-49 3.96465e-49 3.04297e-49 2.30723e-49 1.72816e-49 1.27871e-49 9.34669e-50 6.74914e-50 4.81449e-50 3.39294e-50 2.36231e-50 1.62499e-50 1.10441e-50 7.41652e-51 4.92128e-51 3.22691e-51 2.09098e-51 1.33904e-51 8.47507e-52 5.30183e-52 3.27845e-52 2.00401e-52 1.21102e-52 7.23524e-53 4.27399e-53 2.49646e-53 1.44198e-53 8.23693e-54 4.65349e-54 2.60033e-54 1.4373e-54 7.85867e-55 4.25031e-55 2.27299e-55 1.19991e-55 6.2096e-56 3.06119e-56 1.25149e-56 0 
0 2.3531e-73 7.63661e-73 2.23125e-72 6.4017e-72 1.82041e-71 5.13584e-71 1.43766e-70 3.99288e-70 1.10023e-69 3.00763e-69 8.15621e-69 2.19408e-68 5.85456e-68 1.5495e-67 4.06743e-67 1.05891e-66 2.73389e-66 6.99948e-66 1.777e-65 4.47324e-65 1.11647e-64 2.76269e-64 6.7773e-64 1.64814e-63 3.97298e-63 9.49291e-63 2.2481e-62 5.27642e-62 1.22727e-61 2.82876e-61 6.46062e-61 1.462e-60 3.27785e-60 7.2806e-60 1.60197e-59 3.49158e-59 7.53768e-59 1.61166e-58 3.41268e-58 7.1561e-58 1.48588e-57 3.05481e-57 6.21795e-57 1.25297e-56 2.49938e-56 4.93502e-56 9.64443e-56 1.86536e-55 3.57038e-55 6.76234e-55 1.26729e-54 2.34974e-54 4.31013e-54 7.8209e-54 1.40373e-53 2.49192e-53 4.375e-53 7.59588e-53 1.30407e-52 2.21368e-52 3.7152e-52 6.16415e-52 1.01101e-51 1.63905e-51 2.62637e-51 4.15925e-51 6.50938e-51 1.0067e-50 1.5384e-50 2.32284e-50 3.46518e-50 5.10699e-50 7.43558e-50 1.06944e-49 1.5194e-49 2.13229e-49 2.95574e-49 4.0469e-49 5.47279e-49 7.31011e-49 9.64426e-49 1.25675e-48 1.61762e-48 2.05669e-48 2.58312e-48 3.20505e-48 3.92894e-48 4.75894e-48 5.69627e-48 6.73875e-48 7.88038e-48 9.11123e-48 1.04175e-47 1.17818e-47 1.31839e-47 1.46013e-47 1.60105e-47 1.73878e-47 1.87108e-47 1.99591e-47 2.11151e-47 2.21652e-47 2.30996e-47 2.39129e-47 2.46036e-47 2.51741e-47 2.56297e-47 2.59783e-47 2.62293e-47 2.63933e-47 2.64812e-47 2.65036e-47 2.64707e-47 2.63916e-47 2.62747e-47 2.61271e-47 2.5955e-47 2.57638e-47 2.55582e-47 2.53423e-47 2.51197e-47 2.4894e-47 2.46685e-47 2.44463e-47 2.42307e-47 2.40248e-47 2.38315e-47 2.36539e-47 2.34946e-47 2.33561e-47 2.32403e-47 2.31486e-47 2.30818e-47 2.304e-47 2.30224e-47 2.30273e-47 2.30522e-47 2.30938e-47 2.3148e-47 2.32101e-47 2.32752e-47 2.33382e-47 2.33941e-47 2.34385e-47 2.34677e-47 2.34789e-47 2.34704e-47 2.34419e-47 2.3394e-47 2.33285e-47 2.32482e-47 2.31565e-47 2.30571e-47 2.29538e-47 2.28503e-47 2.27496e-47 2.26543e-47 2.25661e-47 2.24857e-47 2.24136e-47 2.23491e-47 2.22917e-47 2.22402e-47 2.21938e-47 2.21517e-47 2.21137e-47 2.20802e-47 2.20519e-47 2.20307e-47 2.20186e-47 2.20183e-47 2.20328e-47 2.20654e-47 2.21193e-47 2.21976e-47 2.2303e-47 2.24376e-47 2.26028e-47 2.27991e-47 2.30261e-47 2.3282e-47 2.35635e-47 2.38661e-47 2.41831e-47 2.45061e-47 2.4825e-47 2.51274e-47 2.53992e-47 2.56246e-47 2.57869e-47 2.58683e-47 2.58516e-47 2.57201e-47 2.54593e-47 2.50572e-47 2.45056e-47 2.38009e-47 2.29443e-47 2.19425e-47 2.08074e-47 1.95558e-47 1.82087e-47 1.67907e-47 1.53284e-47 1.38493e-47 1.23808e-47 1.09482e-47 9.57465e-48 8.27945e-48 7.0779e-48 5.98091e-48 4.99499e-48 4.12246e-48 3.36197e-48 2.70901e-48 2.15665e-48 1.6962e-48 1.31791e-48 1.01157e-48 7.66997e-49 5.74485e-49 4.25058e-49 3.10675e-49 2.24315e-49 1.59997e-49 1.1274e-49 7.84825e-50 5.39771e-50 3.66781e-50 2.46254e-50 1.63366e-50 1.07093e-50 6.93763e-51 4.44154e-51 2.81032e-51 1.75754e-51 1.08645e-51 6.63893e-52 4.01053e-52 2.39524e-52 1.4144e-52 8.25853e-53 4.76839e-53 2.72278e-53 1.53764e-53 8.5888e-54 4.74541e-54 2.59358e-54 1.40214e-54 7.49533e-55 3.95514e-55 2.04601e-55 1.00829e-55 4.1211e-56 0 
0 6.86403e-73 2.22821e-72 6.51246e-72 1.86914e-71 5.31704e-71 1.50062e-70 4.20217e-70 1.16753e-69 3.21833e-69 8.8012e-69 2.38769e-68 6.42566e-68 1.71529e-67 4.54168e-67 1.1927e-66 3.1064e-66 8.02366e-66 2.05519e-65 5.22002e-65 1.31464e-64 3.28274e-64 8.12701e-64 1.99465e-63 4.85307e-63 1.17046e-62 2.79808e-62 6.62981e-62 1.55686e-61 3.62312e-61 8.35545e-61 1.90934e-60 4.3231e-60 9.69788e-60 2.15526e-59 4.74496e-59 1.03478e-58 2.23519e-58 4.78191e-58 1.01316e-57 2.12577e-57 4.41653e-57 9.08536e-57 1.8504e-56 3.73097e-56 7.44691e-56 1.47128e-55 2.87705e-55 5.56798e-55 1.06638e-54 2.02096e-54 3.78965e-54 7.03077e-54 1.29043e-53 2.34292e-53 4.20764e-53 7.47381e-53 1.31291e-52 2.28077e-52 3.91783e-52 6.6542e-52 1.11737e-51 1.85487e-51 3.0438e-51 4.93706e-51 7.9148e-51 1.254e-50 1.96343e-50 3.0378e-50 4.64409e-50 7.01479e-50 1.04683e-49 1.54332e-49 2.24769e-49 3.23367e-49 4.59532e-49 6.45031e-49 8.94285e-49 1.2246e-48 1.65624e-48 2.21242e-48 2.91892e-48 3.8036e-48 4.89547e-48 6.22354e-48 7.8153e-48 9.69497e-48 1.18816e-47 1.43872e-47 1.72147e-47 2.03566e-47 2.37939e-47 2.74956e-47 3.1419e-47 3.55106e-47 3.97084e-47 4.39439e-47 4.81455e-47 5.22418e-47 5.61651e-47 5.98543e-47 6.32578e-47 6.63352e-47 6.90591e-47 7.14147e-47 7.33995e-47 7.50225e-47 7.63017e-47 7.72625e-47 7.79351e-47 7.83524e-47 7.85483e-47 7.85554e-47 7.84045e-47 7.81234e-47 7.77366e-47 7.72654e-47 7.67279e-47 7.61395e-47 7.55134e-47 7.48611e-47 7.4193e-47 7.35188e-47 7.28476e-47 7.21883e-47 7.155e-47 7.09413e-47 7.03711e-47 6.98475e-47 6.93785e-47 6.89708e-47 6.86302e-47 6.83609e-47 6.81651e-47 6.80429e-47 6.7992e-47 6.80075e-47 6.80819e-47 6.82055e-47 6.83662e-47 6.85502e-47 6.8743e-47 6.89295e-47 6.90953e-47 6.92272e-47 6.93142e-47 6.93482e-47 6.93244e-47 6.92413e-47 6.91011e-47 6.89092e-47 6.86737e-47 6.84045e-47 6.81127e-47 6.78096e-47 6.75058e-47 6.72105e-47 6.69309e-47 6.6672e-47 6.64366e-47 6.62251e-47 6.60364e-47 6.5868e-47 6.57171e-47 6.55808e-47 6.54573e-47 6.53456e-47 6.52468e-47 6.51637e-47 6.5101e-47 6.50652e-47 6.50644e-47 6.51075e-47 6.52041e-47 6.53641e-47 6.55966e-47 6.59098e-47 6.63103e-47 6.68025e-47 6.73885e-47 6.80671e-47 6.88335e-47 6.96789e-47 7.05898e-47 7.15473e-47 7.25272e-47 7.34991e-47 7.44271e-47 7.52691e-47 7.59784e-47 7.65044e-47 7.67945e-47 7.67958e-47 7.64582e-47 7.57368e-47 7.45948e-47 7.30063e-47 7.09588e-47 6.84548e-47 6.55127e-47 6.21668e-47 5.84666e-47 5.44746e-47 5.02635e-47 4.5913e-47 4.15058e-47 3.71238e-47 3.28442e-47 2.87363e-47 2.48592e-47 2.12594e-47 1.79704e-47 1.50125e-47 1.23933e-47 1.01092e-47 8.14732e-48 6.48705e-48 5.10263e-48 3.96494e-48 3.04344e-48 2.30764e-48 1.7284e-48 1.27877e-48 9.34579e-49 6.74715e-49 4.81188e-49 3.39009e-49 2.35952e-49 1.62243e-49 1.1022e-49 7.39819e-50 4.90661e-50 3.21553e-50 2.08239e-50 1.33272e-50 8.42957e-51 5.26979e-51 3.25634e-51 1.98904e-51 1.20107e-51 7.17016e-52 4.23215e-52 2.47e-52 1.4255e-52 8.13583e-53 4.59238e-53 2.56392e-53 1.4159e-53 7.7347e-54 4.17945e-54 2.23305e-54 1.17775e-54 6.08966e-55 2.99975e-55 1.22569e-55 0 
0 1.96601e-72 6.38387e-72 1.86648e-71 5.35894e-71 1.525e-70 4.30562e-70 1.20617e-69 3.35255e-69 9.24517e-69 2.52932e-68 6.86473e-68 1.8482e-67 4.93581e-67 1.30746e-66 3.43511e-66 8.95089e-66 2.31304e-65 5.92747e-65 1.50626e-64 3.79533e-64 9.48186e-64 2.34859e-63 5.76722e-63 1.40393e-62 3.38778e-62 8.10312e-62 1.92101e-61 4.51355e-61 1.05098e-60 2.42509e-60 5.54485e-60 1.25619e-59 2.81962e-59 6.27005e-59 1.38123e-58 3.014e-58 6.51441e-58 1.39454e-57 2.9565e-57 6.20708e-57 1.2904e-56 2.6562e-56 5.41329e-56 1.09218e-55 2.18136e-55 4.31247e-55 8.43834e-55 1.63413e-54 3.1317e-54 5.93888e-54 1.11435e-53 2.06873e-53 3.79935e-53 6.90248e-53 1.24038e-52 2.20459e-52 3.87511e-52 6.73583e-52 1.15774e-51 1.96749e-51 3.30568e-51 5.49059e-51 9.01477e-51 1.46297e-50 2.34653e-50 3.71961e-50 5.82661e-50 9.01891e-50 1.37937e-49 2.08434e-49 3.11165e-49 4.58906e-49 6.68564e-49 9.62117e-49 1.3676e-48 1.92008e-48 2.66255e-48 3.64653e-48 4.93241e-48 6.58921e-48 8.69361e-48 1.13283e-47 1.45793e-47 1.85325e-47 2.32686e-47 2.88589e-47 3.53584e-47 4.28008e-47 5.11928e-47 6.05097e-47 7.06918e-47 8.16437e-47 9.32354e-47 1.05305e-46 1.17665e-46 1.30111e-46 1.42427e-46 1.54403e-46 1.65836e-46 1.76548e-46 1.86388e-46 1.95241e-46 2.0303e-46 2.09716e-46 2.15299e-46 2.19811e-46 2.23311e-46 2.25881e-46 2.27614e-46 2.28612e-46 2.28978e-46 2.28811e-46 2.28203e-46 2.27236e-46 2.25983e-46 2.24504e-46 2.22852e-46 2.21069e-46 2.19193e-46 2.17254e-46 2.15281e-46 2.13301e-46 2.11337e-46 2.09414e-46 2.07557e-46 2.05789e-46 2.04136e-46 2.0262e-46 2.01263e-46 2.00084e-46 1.99101e-46 1.98324e-46 1.9776e-46 1.97409e-46 1.97265e-46 1.97313e-46 1.97531e-46 1.97892e-46 1.9836e-46 1.98896e-46 1.99457e-46 2e-46 2.00483e-46 2.00868e-46 2.01123e-46 2.01224e-46 2.01158e-46 2.00921e-46 2.00518e-46 1.99966e-46 1.99287e-46 1.98511e-46 1.9767e-46 1.96797e-46 1.95921e-46 1.9507e-46 1.94265e-46 1.93519e-46 1.92842e-46 1.92233e-46 1.9169e-46 1.91206e-46 1.90771e-46 1.90379e-46 1.90022e-46 1.897e-46 1.89414e-46 1.89174e-46 1.88992e-46 1.88888e-46 1.88886e-46 1.89011e-46 1.89293e-46 1.8976e-46 1.90438e-46 1.91353e-46 1.92525e-46 1.93967e-46 1.95686e-46 1.97681e-46 1.99939e-46 2.02435e-46 2.05133e-46 2.07978e-46 2.10902e-46 2.13818e-46 2.1662e-46 2.19187e-46 2.21382e-46 2.23056e-46 2.24054e-46 2.24218e-46 2.23399e-46 2.2146e-46 2.18291e-46 2.1381e-46 2.07977e-46 2.00794e-46 1.9231e-46 1.82624e-46 1.71877e-46 1.60252e-46 1.47961e-46 1.35239e-46 1.22329e-46 1.09475e-46 9.69038e-47 8.48239e-47 7.3411e-47 6.2805e-47 5.31072e-47 4.43795e-47 3.66466e-47 2.98997e-47 2.41016e-47 1.91931e-47 1.50988e-47 1.17333e-47 9.00675e-48 6.82931e-48 5.11497e-48 3.78415e-48 2.76538e-48 1.99622e-48 1.42344e-48 1.00268e-48 6.97729e-49 4.79659e-49 3.25775e-49 2.18607e-49 1.44941e-49 9.49564e-50 6.14735e-50 3.93286e-50 2.48664e-50 1.55392e-50 9.59817e-51 5.86028e-51 3.53713e-51 2.11065e-51 1.24523e-51 7.26402e-52 4.19021e-52 2.39033e-52 1.34857e-52 7.52522e-53 4.15358e-53 2.2678e-53 1.22476e-53 6.54034e-54 3.44769e-54 1.78175e-54 8.77292e-55 3.58344e-55 0 
0 5.5809e-72 1.81272e-71 5.30179e-71 1.5228e-70 4.3351e-70 1.22443e-69 3.43149e-69 9.54172e-69 2.63236e-68 7.20477e-68 1.95626e-67 5.26917e-67 1.40782e-66 3.73092e-66 9.8068e-66 2.55657e-65 6.60974e-65 1.69466e-64 4.30851e-64 1.08617e-63 2.71496e-63 6.72827e-63 1.65307e-62 4.02627e-62 9.72099e-62 2.32642e-61 5.51833e-61 1.29731e-60 3.02252e-60 6.9784e-60 1.59652e-59 3.61909e-59 8.12827e-59 1.80861e-58 3.98663e-58 8.70473e-58 1.88261e-57 4.03266e-57 8.55494e-57 1.79724e-56 3.73874e-56 7.70095e-56 1.57047e-55 3.17065e-55 6.33677e-55 1.25358e-54 2.45455e-54 4.75652e-54 9.1216e-54 1.73094e-53 3.25003e-53 6.03742e-53 1.10953e-52 2.01705e-52 3.62699e-52 6.45051e-52 1.13455e-51 1.97332e-51 3.39377e-51 5.77089e-51 9.7016e-51 1.61231e-50 2.64866e-50 4.30072e-50 6.90175e-50 1.09458e-49 1.71545e-49 2.65654e-49 4.06475e-49 6.14471e-49 9.17682e-49 1.35388e-48 1.97308e-48 2.84026e-48 4.03837e-48 5.67111e-48 7.86557e-48 1.07741e-47 1.45751e-47 1.94724e-47 2.56922e-47 3.34781e-47 4.30832e-47 5.47589e-47 6.87422e-47 8.5239e-47 1.04408e-46 1.26343e-46 1.51057e-46 1.78469e-46 2.08394e-46 2.40542e-46 2.74519e-46 3.09838e-46 3.4594e-46 3.82213e-46 4.1802e-46 4.52736e-46 4.8577e-46 5.16599e-46 5.44789e-46 5.70014e-46 5.9206e-46 6.10833e-46 6.26347e-46 6.38717e-46 6.48135e-46 6.54855e-46 6.59169e-46 6.61387e-46 6.6182e-46 6.60766e-46 6.58497e-46 6.55255e-46 6.51249e-46 6.46655e-46 6.41619e-46 6.36262e-46 6.30682e-46 6.24966e-46 6.19188e-46 6.13416e-46 6.07717e-46 6.02155e-46 5.96797e-46 5.91709e-46 5.86956e-46 5.82604e-46 5.78713e-46 5.75337e-46 5.72522e-46 5.70301e-46 5.68692e-46 5.67694e-46 5.67288e-46 5.67434e-46 5.6807e-46 5.69114e-46 5.70465e-46 5.72011e-46 5.7363e-46 5.75197e-46 5.76591e-46 5.77704e-46 5.78445e-46 5.78745e-46 5.78565e-46 5.77893e-46 5.76747e-46 5.75171e-46 5.73234e-46 5.71018e-46 5.68615e-46 5.66119e-46 5.63618e-46 5.61188e-46 5.58889e-46 5.56762e-46 5.54829e-46 5.53093e-46 5.51544e-46 5.50163e-46 5.48923e-46 5.47802e-46 5.46784e-46 5.45861e-46 5.45043e-46 5.44353e-46 5.43831e-46 5.43533e-46 5.43527e-46 5.4389e-46 5.44704e-46 5.46054e-46 5.48018e-46 5.50669e-46 5.54068e-46 5.58257e-46 5.63261e-46 5.69076e-46 5.75673e-46 5.82986e-46 5.9091e-46 5.99298e-46 6.07953e-46 6.16627e-46 6.2502e-46 6.3278e-46 6.3951e-46 6.44776e-46 6.48121e-46 6.49081e-46 6.47213e-46 6.4211e-46 6.33436e-46 6.20942e-46 6.04493e-46 5.84085e-46 5.59849e-46 5.32059e-46 5.01122e-46 4.67561e-46 4.31994e-46 3.95104e-46 3.57605e-46 3.20207e-46 2.83588e-46 2.48356e-46 2.15035e-46 1.84042e-46 1.5568e-46 1.30136e-46 1.0749e-46 8.77212e-47 7.07244e-47 5.63296e-47 4.43185e-47 3.44429e-47 2.64403e-47 2.00484e-47 1.50154e-47 1.1108e-47 8.11677e-48 5.85849e-48 4.17688e-48 2.94169e-48 2.0466e-48 1.40663e-48 9.55108e-49 6.40731e-49 4.24689e-49 2.7814e-49 1.80001e-49 1.15116e-49 7.27569e-50 4.54482e-50 2.80603e-50 1.71251e-50 1.03317e-50 6.16221e-51 3.6338e-51 2.11874e-51 1.22157e-51 6.965e-52 3.92748e-52 2.19044e-52 1.20838e-52 6.59404e-53 3.55928e-53 1.89966e-53 1.00085e-53 5.16966e-54 2.54425e-54 1.03889e-54 0 
0 1.57176e-71 5.10668e-71 1.49413e-70 4.29313e-70 1.22265e-69 3.45471e-69 9.68583e-69 2.6944e-68 7.43645e-68 2.03623e-67 5.53127e-67 1.49051e-66 3.98418e-66 1.05636e-65 2.77797e-65 7.24548e-65 1.87416e-64 4.80752e-64 1.22289e-63 3.08446e-63 7.7139e-63 1.9127e-62 4.70186e-62 1.14583e-61 2.76801e-61 6.62813e-61 1.57311e-60 3.70041e-60 8.62642e-60 1.99286e-59 4.56203e-59 1.03478e-58 2.3255e-58 5.17765e-58 1.14201e-57 2.49515e-57 5.39984e-57 1.15743e-56 2.457e-56 5.16511e-56 1.0752e-55 2.21614e-55 4.52245e-55 9.13663e-55 1.82725e-54 3.61726e-54 7.08749e-54 1.37437e-53 2.63743e-53 5.00825e-53 9.40988e-53 1.7492e-52 3.21676e-52 5.85172e-52 1.05293e-51 1.87382e-51 3.29789e-51 5.73965e-51 9.87736e-51 1.68061e-50 2.82701e-50 4.70098e-50 7.72703e-50 1.25536e-49 2.01567e-49 3.1984e-49 5.01507e-49 7.77e-49 1.18942e-48 1.79881e-48 2.68751e-48 3.96644e-48 5.78244e-48 8.32646e-48 1.18421e-47 1.66339e-47 2.30752e-47 3.16132e-47 4.27714e-47 5.71474e-47 7.5404e-47 9.82542e-47 1.26437e-46 1.60685e-46 2.01685e-46 2.50032e-46 3.06178e-46 3.70381e-46 4.42658e-46 5.22749e-46 6.10088e-46 7.03793e-46 8.02684e-46 9.0531e-46 1.01e-45 1.11496e-45 1.2183e-45 1.31818e-45 1.4129e-45 1.50093e-45 1.58103e-45 1.65228e-45 1.71411e-45 1.76629e-45 1.80891e-45 1.84236e-45 1.86727e-45 1.88441e-45 1.89468e-45 1.89904e-45 1.8984e-45 1.89365e-45 1.8856e-45 1.87495e-45 1.86231e-45 1.84817e-45 1.83295e-45 1.81696e-45 1.80049e-45 1.78375e-45 1.76695e-45 1.75025e-45 1.73383e-45 1.71786e-45 1.70252e-45 1.68799e-45 1.67443e-45 1.66203e-45 1.65096e-45 1.64137e-45 1.63337e-45 1.62707e-45 1.62251e-45 1.6197e-45 1.61857e-45 1.61901e-45 1.62085e-45 1.62384e-45 1.62771e-45 1.63214e-45 1.63677e-45 1.64126e-45 1.64525e-45 1.64845e-45 1.65058e-45 1.65146e-45 1.65098e-45 1.64909e-45 1.64585e-45 1.6414e-45 1.63591e-45 1.62963e-45 1.62282e-45 1.61575e-45 1.60866e-45 1.60177e-45 1.59526e-45 1.58924e-45 1.58377e-45 1.57886e-45 1.57448e-45 1.57057e-45 1.56706e-45 1.56389e-45 1.561e-45 1.55838e-45 1.55605e-45 1.55409e-45 1.5526e-45 1.55176e-45 1.55174e-45 1.55278e-45 1.55512e-45 1.55899e-45 1.56463e-45 1.57226e-45 1.58205e-45 1.59413e-45 1.60858e-45 1.62541e-45 1.64455e-45 1.66581e-45 1.68892e-45 1.71347e-45 1.73891e-45 1.76453e-45 1.78948e-45 1.81276e-45 1.83321e-45 1.84959e-45 1.86057e-45 1.86478e-45 1.86092e-45 1.84778e-45 1.82435e-45 1.78989e-45 1.74394e-45 1.68647e-45 1.61781e-45 1.53872e-45 1.45036e-45 1.35422e-45 1.25208e-45 1.14592e-45 1.0378e-45 9.29809e-46 8.23917e-46 7.21915e-46 6.25341e-46 5.35428e-46 4.5308e-46 3.78863e-46 3.13022e-46 2.55513e-46 2.06046e-46 1.64135e-46 1.29152e-46 1.00381e-46 7.70615e-47 5.84325e-47 4.37623e-47 3.23723e-47 2.36528e-47 1.70699e-47 1.21683e-47 8.56834e-48 5.95994e-48 4.09529e-48 2.78e-48 1.86442e-48 1.23539e-48 8.08817e-49 5.23251e-49 3.34509e-49 2.11337e-49 1.31959e-49 8.14383e-50 4.96795e-50 2.99582e-50 1.78597e-50 1.05266e-50 6.13465e-51 3.53518e-51 2.01459e-51 1.1354e-51 6.32899e-52 3.48956e-52 1.90319e-52 1.02672e-52 5.47675e-53 2.88387e-53 1.48881e-53 7.32375e-54 2.9895e-54 0 
0 4.39197e-71 1.4274e-70 4.17787e-70 1.20091e-69 3.42145e-69 9.6716e-69 2.71272e-68 7.54942e-68 2.08452e-67 5.7103e-67 1.55186e-66 4.18371e-66 1.11884e-65 2.96787e-65 7.80858e-65 2.03763e-64 5.2733e-64 1.35337e-63 3.44436e-63 8.69221e-63 2.17499e-62 5.39592e-62 1.32718e-61 3.2361e-61 7.82201e-61 1.8741e-60 4.45058e-60 1.04752e-59 2.44347e-59 5.6483e-59 1.2938e-58 2.93649e-58 6.60347e-58 1.47119e-57 3.24702e-57 7.09896e-57 1.53733e-56 3.29738e-56 7.00439e-56 1.47346e-55 3.06932e-55 6.33065e-55 1.29278e-54 2.61358e-54 5.23057e-54 1.03617e-53 2.03163e-53 3.94239e-53 7.57072e-53 1.43861e-52 2.70484e-52 5.03149e-52 9.25917e-52 1.68551e-51 3.03486e-51 5.40452e-51 9.5181e-51 1.65761e-50 2.8544e-50 4.85973e-50 8.17974e-50 1.36101e-49 2.2384e-49 3.63864e-49 5.84559e-49 9.28052e-49 1.45592e-48 2.2568e-48 3.45626e-48 5.22936e-48 7.81612e-48 1.154e-47 1.68294e-47 2.42414e-47 3.44864e-47 4.84532e-47 6.72304e-47 9.21221e-47 1.24654e-46 1.66567e-46 2.19789e-46 2.86391e-46 3.68519e-46 4.68291e-46 5.87687e-46 7.2841e-46 8.91737e-46 1.07837e-45 1.2883e-45 1.5207e-45 1.77385e-45 2.04509e-45 2.33092e-45 2.62702e-45 2.92849e-45 3.23e-45 3.52608e-45 3.81136e-45 4.08087e-45 4.33027e-45 4.55602e-45 4.75555e-45 4.92733e-45 5.07085e-45 5.18655e-45 5.2757e-45 5.34027e-45 5.38269e-45 5.40567e-45 5.41205e-45 5.4046e-45 5.38595e-45 5.35843e-45 5.3241e-45 5.28467e-45 5.24156e-45 5.19588e-45 5.14854e-45 5.10024e-45 5.05158e-45 5.00304e-45 4.95508e-45 4.90813e-45 4.86262e-45 4.81903e-45 4.7778e-45 4.73943e-45 4.70439e-45 4.67313e-45 4.64607e-45 4.62355e-45 4.60582e-45 4.59301e-45 4.58514e-45 4.58202e-45 4.58333e-45 4.58859e-45 4.59712e-45 4.60813e-45 4.6207e-45 4.63386e-45 4.6466e-45 4.65796e-45 4.66706e-45 4.67316e-45 4.67572e-45 4.67442e-45 4.66917e-45 4.6601e-45 4.64759e-45 4.63217e-45 4.61452e-45 4.59537e-45 4.57548e-45 4.55555e-45 4.5362e-45 4.51791e-45 4.501e-45 4.48564e-45 4.47186e-45 4.45957e-45 4.4486e-45 4.43875e-45 4.42983e-45 4.4217e-45 4.41432e-45 4.40776e-45 4.40222e-45 4.39802e-45 4.39563e-45 4.39559e-45 4.39856e-45 4.40521e-45 4.41625e-45 4.43234e-45 4.45411e-45 4.48208e-45 4.51667e-45 4.55812e-45 4.60648e-45 4.66158e-45 4.72297e-45 4.78989e-45 4.86122e-45 4.93543e-45 5.01055e-45 5.08419e-45 5.15347e-45 5.21512e-45 5.26554e-45 5.30087e-45 5.31718e-45 5.31063e-45 5.27769e-45 5.21534e-45 5.12129e-45 4.99419e-45 4.83376e-45 4.64086e-45 4.4176e-45 4.16719e-45 3.89389e-45 3.60277e-45 3.29952e-45 2.99012e-45 2.68056e-45 2.37658e-45 2.08341e-45 1.80553e-45 1.54657e-45 1.3092e-45 1.0951e-45 9.05047e-46 7.3895e-46 5.9601e-46 4.74853e-46 3.73691e-46 2.90468e-46 2.22999e-46 1.69093e-46 1.26636e-46 9.36711e-47 6.84341e-47 4.93818e-47 3.51965e-47 2.4779e-47 1.7232e-47 1.18378e-47 8.03371e-48 5.38627e-48 3.56788e-48 2.33513e-48 1.51012e-48 9.65041e-49 6.0945e-49 3.80382e-49 2.3465e-49 1.43078e-49 8.62398e-50 5.13875e-50 3.02731e-50 1.76335e-50 1.01563e-50 5.78469e-51 3.25844e-51 1.81534e-51 1.00035e-51 5.45281e-52 2.93998e-52 1.56736e-52 8.24857e-53 4.25606e-53 2.09264e-53 8.53901e-54 0 
0 1.21763e-70 3.95852e-70 1.15906e-69 3.33298e-69 9.49973e-69 2.68646e-68 7.53825e-68 2.09878e-67 5.79764e-67 1.58891e-66 4.32008e-66 1.16521e-65 3.11757e-65 8.2738e-65 2.17794e-64 5.68615e-64 1.4723e-63 3.78058e-63 9.62673e-63 2.43071e-62 6.08553e-62 1.51059e-61 3.71755e-61 9.06982e-61 2.19355e-60 5.2587e-60 1.24958e-59 2.94289e-59 6.86885e-59 1.58879e-58 3.64159e-58 8.27046e-58 1.86103e-57 4.1489e-57 9.16301e-57 2.00465e-56 4.34413e-56 9.32396e-56 1.98198e-55 4.17223e-55 8.69709e-55 1.79508e-54 3.6683e-54 7.42135e-54 1.48629e-53 2.94642e-53 5.7812e-53 1.12264e-52 2.15738e-52 4.10243e-52 7.71874e-52 1.43683e-51 2.64598e-51 4.82e-51 8.68467e-51 1.54763e-50 2.72742e-50 4.75304e-50 8.19008e-50 1.39529e-49 2.34998e-49 3.91247e-49 6.43856e-49 1.04723e-48 1.68335e-48 2.67396e-48 4.19707e-48 6.50906e-48 9.97326e-48 1.50964e-47 2.25735e-47 3.33414e-47 4.86411e-47 7.00864e-47 9.9736e-47 1.40165e-46 1.94526e-46 2.66596e-46 3.60792e-46 4.82148e-46 6.36236e-46 8.29037e-46 1.06673e-45 1.35539e-45 1.7007e-45 2.1075e-45 2.57935e-45 3.11815e-45 3.72371e-45 4.39343e-45 5.12208e-45 5.9018e-45 6.72216e-45 7.57051e-45 8.43244e-45 9.29241e-45 1.01345e-44 1.09433e-44 1.17043e-44 1.24053e-44 1.30363e-44 1.35902e-44 1.40629e-44 1.44535e-44 1.47636e-44 1.49974e-44 1.5161e-44 1.52619e-44 1.53082e-44 1.53084e-44 1.52706e-44 1.52027e-44 1.51113e-44 1.50024e-44 1.48808e-44 1.47505e-44 1.46146e-44 1.44754e-44 1.43348e-44 1.41943e-44 1.40551e-44 1.39183e-44 1.3785e-44 1.36563e-44 1.35334e-44 1.34173e-44 1.33096e-44 1.32113e-44 1.31237e-44 1.3048e-44 1.2985e-44 1.29355e-44 1.28998e-44 1.2878e-44 1.28694e-44 1.28733e-44 1.28882e-44 1.29123e-44 1.29434e-44 1.29788e-44 1.30159e-44 1.30518e-44 1.30839e-44 1.31096e-44 1.31269e-44 1.31343e-44 1.31308e-44 1.31163e-44 1.30911e-44 1.30563e-44 1.30133e-44 1.29641e-44 1.29107e-44 1.28552e-44 1.27996e-44 1.27457e-44 1.26947e-44 1.26476e-44 1.26048e-44 1.25664e-44 1.25322e-44 1.25016e-44 1.24742e-44 1.24493e-44 1.24267e-44 1.24061e-44 1.23877e-44 1.23722e-44 1.23604e-44 1.23537e-44 1.23536e-44 1.2362e-44 1.23808e-44 1.2412e-44 1.24576e-44 1.25193e-44 1.25987e-44 1.2697e-44 1.28149e-44 1.29529e-44 1.31104e-44 1.32863e-44 1.34787e-44 1.36845e-44 1.38994e-44 1.41181e-44 1.43338e-44 1.45384e-44 1.47226e-44 1.48762e-44 1.49881e-44 1.50469e-44 1.50415e-44 1.49615e-44 1.47982e-44 1.45445e-44 1.41963e-44 1.37524e-44 1.32151e-44 1.25899e-44 1.18858e-44 1.11149e-44 1.02915e-44 9.43174e-45 8.55285e-45 7.67204e-45 6.80584e-45 5.96935e-45 5.1756e-45 4.43516e-45 3.75585e-45 3.14269e-45 2.59803e-45 2.12175e-45 1.71167e-45 1.36394e-45 1.0735e-45 8.34494e-46 6.4069e-46 4.85816e-46 3.63825e-46 2.691e-46 1.96579e-46 1.41832e-46 1.01074e-46 7.11442e-47 4.94648e-47 3.39724e-47 2.3049e-47 1.54488e-47 1.023e-47 6.69307e-48 4.32681e-48 2.76397e-48 1.74481e-48 1.08854e-48 6.712e-49 4.09076e-49 2.46452e-49 1.46781e-49 8.64268e-50 5.03159e-50 2.89649e-50 1.64886e-50 9.28274e-51 5.16871e-51 2.84664e-51 1.55079e-51 8.35653e-52 4.45246e-52 2.34186e-52 1.20768e-52 5.93505e-53 2.42094e-53 0 
0 3.34909e-70 1.08913e-69 3.19022e-69 9.17748e-69 2.61687e-68 7.40348e-68 2.07833e-67 5.78899e-67 1.59986e-66 4.38662e-66 1.19323e-65 3.21992e-65 8.61921e-65 2.2886e-64 6.02741e-64 1.57444e-63 4.07878e-63 1.04791e-62 2.66979e-62 6.74482e-62 1.68958e-61 4.19637e-61 1.03331e-60 2.52248e-60 6.1043e-60 1.46429e-59 3.4816e-59 8.20464e-59 1.91621e-58 4.43509e-58 1.0172e-57 2.31169e-57 5.20525e-57 1.16121e-56 2.56632e-56 5.61833e-56 1.21835e-55 2.6168e-55 5.5664e-55 1.1726e-54 2.44605e-54 5.05226e-54 1.03319e-53 2.09175e-53 4.19224e-53 8.3167e-53 1.63302e-52 3.17343e-52 6.10283e-52 1.16134e-51 2.18665e-51 4.07336e-51 7.50658e-51 1.3684e-50 2.46731e-50 4.39987e-50 7.75933e-50 1.35312e-49 2.33316e-49 3.97745e-49 6.70321e-49 1.11671e-48 1.83885e-48 2.99265e-48 4.81327e-48 7.64998e-48 1.20139e-47 1.86413e-47 2.85763e-47 4.32755e-47 6.47373e-47 9.56564e-47 1.39603e-46 2.0122e-46 2.86432e-46 4.02647e-46 5.58936e-46 7.66161e-46 1.03702e-45 1.38597e-45 1.82901e-45 2.38328e-45 3.06643e-45 3.89587e-45 4.88767e-45 6.05549e-45 7.40928e-45 8.95405e-45 1.06887e-44 1.26053e-44 1.46881e-44 1.69138e-44 1.92519e-44 2.16653e-44 2.41121e-44 2.65473e-44 2.89249e-44 3.12006e-44 3.33333e-44 3.52881e-44 3.7037e-44 3.85608e-44 3.9849e-44 4.08998e-44 4.17197e-44 4.2322e-44 4.27253e-44 4.29522e-44 4.30271e-44 4.29751e-44 4.28203e-44 4.25849e-44 4.22887e-44 4.19483e-44 4.15776e-44 4.11873e-44 4.0786e-44 4.03797e-44 3.99734e-44 3.95706e-44 3.91742e-44 3.87869e-44 3.84112e-44 3.80498e-44 3.77056e-44 3.73816e-44 3.70812e-44 3.68076e-44 3.65642e-44 3.6354e-44 3.61794e-44 3.60422e-44 3.59436e-44 3.58833e-44 3.58602e-44 3.58716e-44 3.59136e-44 3.59812e-44 3.60681e-44 3.61672e-44 3.62709e-44 3.63713e-44 3.6461e-44 3.6533e-44 3.65817e-44 3.66029e-44 3.65939e-44 3.65541e-44 3.64847e-44 3.63885e-44 3.62696e-44 3.61334e-44 3.59856e-44 3.58321e-44 3.56783e-44 3.55291e-44 3.53882e-44 3.5258e-44 3.51398e-44 3.50338e-44 3.49393e-44 3.4855e-44 3.47792e-44 3.47104e-44 3.46476e-44 3.45905e-44 3.45395e-44 3.44964e-44 3.44637e-44 3.44451e-44 3.4445e-44 3.44686e-44 3.45214e-44 3.4609e-44 3.47369e-44 3.49105e-44 3.5134e-44 3.54112e-44 3.57446e-44 3.61351e-44 3.65822e-44 3.70828e-44 3.76318e-44 3.82211e-44 3.88391e-44 3.9471e-44 4.0098e-44 4.06975e-44 4.12433e-44 4.17064e-44 4.20551e-44 4.22572e-44 4.22803e-44 4.20947e-44 4.1674e-44 4.09981e-44 4.00538e-44 3.88369e-44 3.73526e-44 3.56162e-44 3.36523e-44 3.14945e-44 2.91832e-44 2.67642e-44 2.42863e-44 2.17986e-44 1.93485e-44 1.69793e-44 1.47286e-44 1.26269e-44 1.0697e-44 8.95368e-45 7.40406e-45 6.04823e-45 4.88026e-45 3.88947e-45 3.0616e-45 2.38015e-45 1.82746e-45 1.38572e-45 1.03773e-45 7.67492e-46 5.60603e-46 4.04423e-46 2.88156e-46 2.02789e-46 1.40962e-46 9.67887e-47 6.5649e-47 4.39884e-47 2.91191e-47 1.90447e-47 1.23071e-47 7.85863e-48 4.95886e-48 3.09235e-48 1.9059e-48 1.16104e-48 6.99143e-49 4.16185e-49 2.44931e-49 1.42519e-49 8.19983e-50 4.6653e-50 2.625e-50 1.46079e-50 8.04063e-51 4.37781e-51 2.35763e-51 1.25544e-51 6.59935e-52 3.40132e-52 1.67072e-52 6.81252e-53 0 