# vtk DataFile Version 3.0
Gray-Scott Simulation Output
ASCII
DATASET STRUCTURED_POINTS
DIMENSIONS 256 256 1
SPACING 1.0 1.0 1.0
ORIGIN 0 0 0
POINT_DATA 65536
SCALARS u double
LOOKUP_TABLE default
0 0 0 0 0 0 0 0 0 0 0 0 0 0 0 0 0 0 0 0 0 0 0 0 0 0 0 0 0 0 0 0 0 0 0 0 0 0 0 0 0 0 0 0 0 0 0 0 0 0 0 0 0 0 0 0 0 0 0 0 0 0 0 0 0 0 0 0 0 0 0 0 0 0 0 0 0 0 0 0 0 0 0 0 0 0 0 0 0 0 0 0 0 0 0 0 0 0 0 0 0 0 0 0 0 0 0 0 0 0 0 0 0 0 0 0 0 0 0 0 0 0 0 0 0 0 0 0 0 0 0 0 0 0 0 0 0 0 0 0 0 0 0 0 0 0 0 0 0 0 0 0 0 0 0 0 0 0 0 0 0 0 0 0 0 0 0 0 0 0 0 0 0 0 0 0 0 0 0 0 0 0 0 0 0 0 0 0 0 0 0 0 0 0 0 0 0 0 0 0 0 0 0 0 0 0 0 0 0 0 0 0 0 0 0 0 0 0 0 0 0 0 0 0 0 0 0 0 0 0 0 0 0 0 0 0 0 0 0 0 0 0 0 0 0 0 0 0 0 0 0 0 0 0 0 0 
0 5.11862e-95 2.64811e-94 1.30792e-93 6.3902e-93 3.09239e-92 1.48221e-91 7.03599e-91 3.30755e-90 1.53963e-89 7.09608e-89 3.23798e-88 1.46267e-87 6.54028e-87 2.89457e-86 1.26785e-85 5.49554e-85 2.35704e-84 1.00023e-83 4.19913e-83 1.74384e-82 7.16303e-82 2.90994e-81 1.16902e-80 4.6437e-80 1.82375e-79 7.08065e-79 2.71732e-78 1.03067e-77 3.86326e-77 1.43086e-76 5.23592e-76 1.89274e-75 6.75822e-75 2.38322e-74 8.29907e-74 2.85345e-73 9.68566e-73 3.24522e-72 1.07314e-71 3.50191e-71 1.12752e-70 3.58139e-70 1.12208e-69 3.46712e-69 1.05639e-68 3.1734e-68 9.39709e-68 2.74261e-67 7.88792e-67 2.2352e-66 6.23954e-66 1.71552e-65 4.64479e-65 1.2382e-64 3.24929e-64 8.39226e-64 2.13296e-63 5.33359e-63 1.31191e-62 3.17362e-62 7.54895e-62 1.76528e-61 4.05746e-61 9.16472e-61 2.03387e-60 4.43384e-60 9.49301e-60 1.99576e-59 4.11914e-59 8.3448e-59 1.65902e-58 3.23616e-58 6.19259e-58 1.16225e-57 2.13911e-57 3.86014e-57 6.82874e-57 1.18407e-56 2.01215e-56 3.35066e-56 5.46692e-56 8.73896e-56 1.36852e-55 2.09942e-55 3.15498e-55 4.6446e-55 6.69848e-55 9.46498e-55 1.31049e-54 1.77827e-54 2.36542e-54 3.08527e-54 3.94731e-54 4.9558e-54 6.10856e-54 7.3963e-54 8.80261e-54 1.03045e-53 1.18738e-53 1.34788e-53 1.50862e-53 1.66633e-53 1.818e-53 1.96097e-53 2.09306e-53 2.21261e-53 2.31845e-53 2.40991e-53 2.48673e-53 2.54904e-53 2.59727e-53 2.63212e-53 2.65453e-53 2.66558e-53 2.66651e-53 2.6586e-53 2.64317e-53 2.62148e-53 2.59472e-53 2.56399e-53 2.53022e-53 2.49429e-53 2.45695e-53 2.41894e-53 2.38094e-53 2.34367e-53 2.30783e-53 2.27413e-53 2.24329e-53 2.21598e-53 2.19282e-53 2.17439e-53 2.1612e-53 2.15365e-53 2.15206e-53 2.15656e-53 2.16706e-53 2.18318e-53 2.20418e-53 2.2289e-53 2.25581e-53 2.28301e-53 2.3084e-53 2.32982e-53 2.34529e-53 2.3532e-53 2.35253e-53 2.34297e-53 2.325e-53 2.29983e-53 2.26929e-53 2.2356e-53 2.20116e-53 2.16824e-53 2.13877e-53 2.11413e-53 2.0951e-53 2.08177e-53 2.07367e-53 2.06986e-53 2.06913e-53 2.07012e-53 2.07152e-53 2.07221e-53 2.07133e-53 2.06835e-53 2.06309e-53 2.05572e-53 2.04675e-53 2.03693e-53 2.02725e-53 2.01881e-53 2.01272e-53 2.01005e-53 2.01171e-53 2.0184e-53 2.03054e-53 2.04828e-53 2.07152e-53 2.09996e-53 2.1331e-53 2.17033e-53 2.2109e-53 2.25392e-53 2.29825e-53 2.34248e-53 2.38477e-53 2.42289e-53 2.45413e-53 2.47542e-53 2.48345e-53 2.47492e-53 2.44681e-53 2.3967e-53 2.32304e-53 2.22545e-53 2.10483e-53 1.96341e-53 1.80467e-53 1.63309e-53 1.45386e-53 1.27246e-53 1.09423e-53 9.24047e-54 7.65939e-54 6.22926e-54 4.969e-54 3.88655e-54 2.97999e-54 2.23939e-54 1.64908e-54 1.18985e-54 8.41087e-55 5.82459e-55 3.95138e-55 2.62598e-55 1.70963e-55 1.09043e-55 6.81405e-56 4.17216e-56 2.50326e-56 1.47194e-56 8.48329e-57 4.79281e-57 2.6548e-57 1.44196e-57 7.68122e-58 4.01358e-58 2.05748e-58 1.03496e-58 5.10937e-59 2.47602e-59 1.17805e-59 5.50406e-60 2.52576e-60 1.13861e-60 5.04332e-61 2.19533e-61 9.39316e-62 3.95123e-62 1.63436e-62 6.64871e-63 2.66064e-63 1.04755e-63 4.05863e-64 1.5477e-64 5.8099e-65 2.14737e-65 7.81587e-66 2.80188e-66 9.8936e-67 3.43845e-67 1.16639e-67 3.55302e-68 0 
0 2.64503e-94 1.36837e-93 6.75833e-93 3.3019e-92 1.59785e-91 7.65853e-91 3.63544e-90 1.70897e-89 7.95507e-89 3.66645e-88 1.67303e-87 7.55751e-87 3.37935e-86 1.49564e-85 6.55117e-85 2.83969e-84 1.21798e-83 5.1687e-83 2.16999e-82 9.01199e-82 3.70193e-81 1.50396e-80 6.0422e-80 2.40028e-79 9.42728e-79 3.66034e-78 1.40482e-77 5.32878e-77 1.99755e-76 7.39903e-76 2.70775e-75 9.78914e-75 3.49565e-74 1.23283e-73 4.29354e-73 1.4764e-72 5.01203e-72 1.67951e-71 5.55455e-71 1.81281e-70 5.83757e-70 1.85447e-69 5.81106e-69 1.79584e-68 5.4726e-68 1.64423e-67 4.86972e-67 1.42151e-66 4.08907e-66 1.15893e-65 3.23576e-65 8.89818e-65 2.40967e-64 6.42495e-64 1.68638e-63 4.3565e-63 1.10748e-62 2.76991e-62 6.81468e-62 1.6489e-61 3.92304e-61 9.17594e-61 2.10955e-60 4.76602e-60 1.05794e-59 2.30686e-59 4.94021e-59 1.03885e-58 2.14463e-58 4.34572e-58 8.64164e-58 1.68606e-57 3.2271e-57 6.05805e-57 1.11522e-56 2.01289e-56 3.56158e-56 6.17681e-56 1.04984e-55 1.74851e-55 2.85332e-55 4.56176e-55 7.14469e-55 1.09618e-54 1.6475e-54 2.42559e-54 3.49846e-54 4.94361e-54 6.84501e-54 9.28846e-54 1.23553e-53 1.61149e-53 2.06166e-53 2.58821e-53 3.18998e-53 3.86205e-53 4.59579e-53 5.37918e-53 6.19742e-53 7.03394e-53 7.87137e-53 8.6927e-53 9.48216e-53 1.0226e-52 1.09129e-52 1.15342e-52 1.20841e-52 1.2559e-52 1.29577e-52 1.32809e-52 1.3531e-52 1.37116e-52 1.38275e-52 1.38846e-52 1.38891e-52 1.38478e-52 1.37675e-52 1.36547e-52 1.35157e-52 1.33561e-52 1.31808e-52 1.29942e-52 1.28004e-52 1.2603e-52 1.24058e-52 1.22123e-52 1.20263e-52 1.18514e-52 1.16913e-52 1.15496e-52 1.14294e-52 1.13338e-52 1.12653e-52 1.12262e-52 1.1218e-52 1.12414e-52 1.1296e-52 1.13798e-52 1.14889e-52 1.16174e-52 1.17572e-52 1.18986e-52 1.20305e-52 1.21418e-52 1.22222e-52 1.22633e-52 1.22598e-52 1.22101e-52 1.21168e-52 1.1986e-52 1.18274e-52 1.16524e-52 1.14735e-52 1.13026e-52 1.11497e-52 1.10219e-52 1.09233e-52 1.08543e-52 1.08124e-52 1.07929e-52 1.07893e-52 1.07946e-52 1.0802e-52 1.08057e-52 1.08011e-52 1.07856e-52 1.07581e-52 1.07197e-52 1.06729e-52 1.06218e-52 1.05713e-52 1.05272e-52 1.04954e-52 1.04813e-52 1.04898e-52 1.05245e-52 1.05874e-52 1.06795e-52 1.08002e-52 1.09478e-52 1.112e-52 1.13133e-52 1.15241e-52 1.17475e-52 1.19779e-52 1.22076e-52 1.24274e-52 1.26256e-52 1.2788e-52 1.28988e-52 1.29407e-52 1.28965e-52 1.27505e-52 1.249e-52 1.2107e-52 1.15992e-52 1.09715e-52 1.02352e-52 9.40859e-53 8.5149e-53 7.58112e-53 6.63578e-53 5.70684e-53 4.81962e-53 3.99524e-53 3.24945e-53 2.59216e-53 2.02755e-53 1.55464e-53 1.16828e-53 8.60306e-54 6.20715e-54 4.38758e-54 3.03827e-54 2.06101e-54 1.36958e-54 8.91575e-55 5.686e-55 3.55274e-55 2.17502e-55 1.30481e-55 7.67126e-56 4.42052e-56 2.49705e-56 1.38291e-56 7.51e-57 3.99978e-57 2.08957e-57 1.07097e-57 5.38614e-58 2.6585e-58 1.28806e-58 6.12718e-59 2.86214e-59 1.31314e-59 5.91843e-60 2.62096e-60 1.14066e-60 4.87957e-61 2.05219e-61 8.48686e-62 3.45187e-62 1.38108e-62 5.43658e-63 2.10597e-63 8.02936e-64 3.01361e-64 1.11366e-64 4.05274e-65 1.45261e-65 5.12844e-66 1.78208e-66 6.04431e-67 1.84097e-67 0 
0 1.30474e-93 6.74974e-93 3.3336e-92 1.62866e-91 7.88129e-91 3.77748e-90 1.79312e-89 8.42921e-89 3.9237e-88 1.80842e-87 8.252e-87 3.72769e-86 1.66686e-85 7.37737e-85 3.2315e-84 1.40077e-83 6.00826e-83 2.54981e-82 1.07053e-81 4.44613e-81 1.82646e-80 7.42064e-80 2.98144e-79 1.18446e-78 4.65237e-78 1.80651e-77 6.93382e-77 2.63037e-76 9.86107e-76 3.65294e-75 1.33696e-74 4.83392e-74 1.72636e-73 6.08914e-73 2.1209e-72 7.29396e-72 2.47644e-71 8.29958e-71 2.74527e-70 8.96095e-70 2.88602e-69 9.16975e-69 2.87385e-68 8.88283e-68 2.70741e-67 8.13581e-67 2.41004e-66 7.03645e-66 2.02449e-65 5.73903e-65 1.60268e-64 4.40825e-64 1.19404e-63 3.1844e-63 8.36015e-63 2.16022e-62 5.49287e-62 1.37415e-61 3.3816e-61 8.18424e-61 1.94768e-60 4.55677e-60 1.04787e-59 2.36803e-59 5.25783e-59 1.14678e-58 2.45651e-58 5.16699e-58 1.06697e-57 2.16258e-57 4.30149e-57 8.39472e-57 1.60714e-56 3.01772e-56 5.55661e-56 1.00316e-55 1.77537e-55 3.07967e-55 5.23543e-55 8.72129e-55 1.42345e-54 2.27612e-54 3.56543e-54 5.47105e-54 8.22367e-54 1.21088e-53 1.74661e-53 2.46825e-53 3.41772e-53 4.63782e-53 6.1691e-53 8.04608e-53 1.02932e-52 1.29212e-52 1.59239e-52 1.92765e-52 2.29357e-52 2.6841e-52 3.09186e-52 3.50854e-52 3.92548e-52 4.33421e-52 4.72686e-52 5.09662e-52 5.4379e-52 5.74644e-52 6.01934e-52 6.25492e-52 6.4526e-52 6.61276e-52 6.73659e-52 6.82594e-52 6.88324e-52 6.91135e-52 6.91342e-52 6.8928e-52 6.85285e-52 6.79685e-52 6.72785e-52 6.64863e-52 6.56165e-52 6.46911e-52 6.37298e-52 6.27511e-52 6.17731e-52 6.08137e-52 5.98912e-52 5.90241e-52 5.82304e-52 5.75275e-52 5.69318e-52 5.64578e-52 5.61187e-52 5.5925e-52 5.58847e-52 5.60012e-52 5.62724e-52 5.66884e-52 5.72301e-52 5.7868e-52 5.85621e-52 5.92639e-52 5.99189e-52 6.04715e-52 6.08706e-52 6.10747e-52 6.10574e-52 6.0811e-52 6.03475e-52 5.96985e-52 5.8911e-52 5.80428e-52 5.71555e-52 5.63079e-52 5.55497e-52 5.49166e-52 5.44282e-52 5.40871e-52 5.38809e-52 5.37853e-52 5.37685e-52 5.37957e-52 5.38331e-52 5.38516e-52 5.38289e-52 5.37515e-52 5.36149e-52 5.34236e-52 5.31904e-52 5.29354e-52 5.26838e-52 5.24638e-52 5.23048e-52 5.22342e-52 5.22756e-52 5.24468e-52 5.27587e-52 5.32154e-52 5.38141e-52 5.45467e-52 5.54007e-52 5.63603e-52 5.74062e-52 5.85152e-52 5.96584e-52 6.0799e-52 6.18905e-52 6.28747e-52 6.3682e-52 6.42329e-52 6.44421e-52 6.42237e-52 6.34993e-52 6.22056e-52 6.03022e-52 5.77783e-52 5.46564e-52 5.0994e-52 4.68805e-52 4.2432e-52 3.77827e-52 3.30747e-52 2.84473e-52 2.40268e-52 1.99186e-52 1.62014e-52 1.29249e-52 1.011e-52 7.75207e-53 5.82555e-53 4.2898e-53 3.09503e-53 2.18765e-53 1.51479e-53 1.02748e-53 6.82718e-54 4.4439e-54 2.83375e-54 1.77035e-54 1.08367e-54 6.5e-55 3.82084e-55 2.20135e-55 1.24326e-55 6.88408e-56 3.7377e-56 1.99026e-56 1.03954e-56 5.3268e-57 2.67837e-57 1.3217e-57 6.40231e-58 3.04482e-58 1.42198e-58 6.52251e-59 2.93908e-59 1.30127e-59 5.66195e-60 2.42155e-60 1.0182e-60 4.20986e-61 1.71191e-61 6.84785e-62 2.69506e-62 1.04378e-62 3.97875e-63 1.49303e-63 5.5163e-64 2.00707e-64 7.19256e-65 2.53887e-65 8.8208e-66 2.99127e-66 9.1096e-67 0 
0 6.36637e-93 3.29342e-92 1.62655e-91 7.94652e-91 3.84538e-90 1.84306e-89 8.74876e-89 4.11266e-88 1.9144e-87 8.82347e-87 4.02629e-86 1.81883e-85 8.13317e-85 3.59974e-84 1.57683e-83 6.83538e-83 2.93197e-82 1.24433e-81 5.22454e-81 2.16996e-80 8.91465e-80 3.62209e-79 1.45537e-78 5.78223e-78 2.27134e-77 8.8203e-77 3.38572e-76 1.2845e-75 4.81595e-75 1.7842e-74 6.53078e-74 2.36153e-73 8.43482e-73 2.97546e-72 1.03651e-71 3.56512e-71 1.2106e-70 4.0578e-70 1.34241e-69 4.3825e-69 1.41169e-68 4.48611e-68 1.40622e-67 4.34728e-67 1.32526e-66 3.9832e-66 1.18016e-65 3.44635e-65 9.91776e-65 2.81209e-64 7.85478e-64 2.16098e-63 5.85471e-63 1.56177e-62 4.10118e-62 1.05999e-61 2.69594e-61 6.74615e-61 1.66057e-60 4.02e-60 9.56934e-60 2.23943e-59 5.15119e-59 1.16441e-58 2.58608e-58 5.64202e-58 1.20891e-57 2.54351e-57 5.2537e-57 1.06514e-56 2.11918e-56 4.13687e-56 7.92194e-56 1.48789e-55 2.74037e-55 4.9485e-55 8.75983e-55 1.51987e-54 2.58434e-54 4.30591e-54 7.02924e-54 1.12419e-53 1.76126e-53 2.703e-53 4.06345e-53 5.98378e-53 8.63194e-53 1.21992e-52 1.68926e-52 2.29236e-52 3.04922e-52 3.97684e-52 5.08725e-52 6.38561e-52 7.86873e-52 9.52424e-52 1.13306e-51 1.32577e-51 1.5269e-51 1.73234e-51 1.93781e-51 2.13912e-51 2.33241e-51 2.51434e-51 2.68215e-51 2.83378e-51 2.96781e-51 3.08345e-51 3.18044e-51 3.25897e-51 3.31965e-51 3.3634e-51 3.39142e-51 3.40511e-51 3.40604e-51 3.39585e-51 3.37618e-51 3.34865e-51 3.31475e-51 3.27584e-51 3.23313e-51 3.18771e-51 3.14052e-51 3.09249e-51 3.04448e-51 2.9974e-51 2.95213e-51 2.90957e-51 2.87063e-51 2.83614e-51 2.80691e-51 2.78366e-51 2.76703e-51 2.75754e-51 2.75557e-51 2.76131e-51 2.77464e-51 2.79509e-51 2.82171e-51 2.85305e-51 2.88716e-51 2.92164e-51 2.95383e-51 2.98099e-51 3.0006e-51 3.01063e-51 3.00978e-51 2.99768e-51 2.97491e-51 2.94302e-51 2.90434e-51 2.86171e-51 2.81814e-51 2.77654e-51 2.73933e-51 2.70829e-51 2.68436e-51 2.66767e-51 2.65761e-51 2.65298e-51 2.65222e-51 2.6536e-51 2.65547e-51 2.65639e-51 2.65528e-51 2.65146e-51 2.64473e-51 2.63529e-51 2.62379e-51 2.61121e-51 2.5988e-51 2.58794e-51 2.58007e-51 2.57656e-51 2.57855e-51 2.58693e-51 2.60223e-51 2.62464e-51 2.65403e-51 2.69001e-51 2.73196e-51 2.77909e-51 2.83046e-51 2.88493e-51 2.94109e-51 2.99714e-51 3.05078e-51 3.09917e-51 3.13888e-51 3.16602e-51 3.17636e-51 3.16569e-51 3.13013e-51 3.06655e-51 2.97296e-51 2.84879e-51 2.69513e-51 2.51481e-51 2.31221e-51 2.09304e-51 1.86391e-51 1.63183e-51 1.40366e-51 1.18565e-51 9.83e-52 7.99607e-52 6.3793e-52 4.99015e-52 3.82638e-52 2.87547e-52 2.1174e-52 1.52762e-52 1.07972e-52 7.47575e-53 5.07039e-53 3.36873e-53 2.1925e-53 1.39792e-53 8.73211e-54 5.34428e-54 3.20504e-54 1.88366e-54 1.08505e-54 6.12689e-55 3.39183e-55 1.8412e-55 9.80195e-56 5.11852e-56 2.62224e-56 1.31819e-56 6.50335e-57 3.14947e-57 1.49747e-57 6.99175e-58 3.20629e-58 1.44443e-58 6.39363e-59 2.78127e-59 1.18924e-59 4.99927e-60 2.06653e-60 8.40146e-61 3.35993e-61 1.32206e-61 5.1191e-62 1.95093e-62 7.31932e-63 2.70372e-63 9.83536e-64 3.52392e-64 1.24366e-64 4.32005e-65 1.46475e-65 4.46009e-66 0 
0 3.07679e-92 1.59164e-91 7.86066e-91 3.8403e-90 1.85833e-89 8.90682e-89 4.22794e-88 1.9875e-87 9.25167e-87 4.26414e-86 1.94582e-85 8.79018e-85 3.93076e-84 1.7398e-83 7.62129e-83 3.30385e-82 1.41721e-81 6.01493e-81 2.5256e-80 1.04904e-79 4.30993e-79 1.75127e-78 7.03714e-78 2.79609e-77 1.09843e-76 4.2659e-76 1.63763e-75 6.21357e-75 2.32988e-74 8.63257e-74 3.16017e-73 1.14285e-72 4.0825e-72 1.44032e-71 5.01808e-71 1.72624e-70 5.8626e-70 1.96538e-69 6.50295e-69 2.12334e-68 6.84084e-68 2.17429e-67 6.81679e-67 2.1078e-66 6.42683e-66 1.93204e-65 5.72553e-65 1.67235e-64 4.81366e-64 1.36518e-63 3.81413e-63 1.04958e-62 2.8443e-62 7.58918e-62 1.99341e-61 5.15347e-61 1.31106e-60 3.2816e-60 8.07987e-60 1.95656e-59 4.65876e-59 1.09056e-58 2.50923e-58 5.67365e-58 1.26045e-57 2.7507e-57 5.89558e-57 1.24077e-56 2.56359e-56 5.1989e-56 1.03466e-55 2.02032e-55 3.8699e-55 7.27034e-55 1.33939e-54 2.41926e-54 4.28362e-54 7.43405e-54 1.26434e-53 2.10704e-53 3.44035e-53 5.50315e-53 8.62324e-53 1.3236e-52 1.99005e-52 2.93084e-52 4.22829e-52 5.97608e-52 8.27565e-52 1.12305e-51 1.49383e-51 1.94823e-51 2.49208e-51 3.12785e-51 3.85392e-51 4.66416e-51 5.54791e-51 6.49041e-51 7.47364e-51 8.47748e-51 9.48096e-51 1.04636e-50 1.14066e-50 1.22936e-50 1.31112e-50 1.38496e-50 1.4502e-50 1.50645e-50 1.5536e-50 1.59175e-50 1.62121e-50 1.64243e-50 1.65601e-50 1.66262e-50 1.66302e-50 1.65802e-50 1.64843e-50 1.63501e-50 1.61851e-50 1.59957e-50 1.57879e-50 1.55669e-50 1.53374e-50 1.51038e-50 1.48703e-50 1.46413e-50 1.44211e-50 1.42142e-50 1.40248e-50 1.38571e-50 1.3715e-50 1.36019e-50 1.35211e-50 1.3475e-50 1.34655e-50 1.34935e-50 1.35585e-50 1.36581e-50 1.37877e-50 1.39403e-50 1.41064e-50 1.42744e-50 1.44311e-50 1.45634e-50 1.46589e-50 1.47078e-50 1.47037e-50 1.46447e-50 1.45339e-50 1.43787e-50 1.41904e-50 1.39828e-50 1.37709e-50 1.35685e-50 1.33876e-50 1.32367e-50 1.31206e-50 1.30397e-50 1.29911e-50 1.29689e-50 1.29654e-50 1.29724e-50 1.29816e-50 1.29862e-50 1.29808e-50 1.29622e-50 1.29292e-50 1.28831e-50 1.28269e-50 1.27654e-50 1.27047e-50 1.26516e-50 1.2613e-50 1.25957e-50 1.26052e-50 1.26458e-50 1.27202e-50 1.28292e-50 1.29722e-50 1.31473e-50 1.33514e-50 1.35808e-50 1.38309e-50 1.40961e-50 1.43695e-50 1.46424e-50 1.49037e-50 1.51395e-50 1.53332e-50 1.54656e-50 1.55164e-50 1.54647e-50 1.52918e-50 1.49823e-50 1.45262e-50 1.39209e-50 1.31715e-50 1.22916e-50 1.13027e-50 1.02326e-50 9.11345e-51 7.97959e-51 6.86458e-51 5.79894e-51 4.80819e-51 3.91142e-51 3.12071e-51 2.44124e-51 1.87195e-51 1.40674e-51 1.03586e-51 7.47311e-52 5.28167e-52 3.65668e-52 2.4799e-52 1.64746e-52 1.0721e-52 6.83471e-53 4.26868e-53 2.61211e-53 1.56625e-53 9.20341e-54 5.30045e-54 2.99235e-54 1.6562e-54 8.9884e-55 4.78404e-55 2.49761e-55 1.27923e-55 6.42906e-56 3.17103e-56 1.5353e-56 7.29802e-57 3.40662e-57 1.56182e-57 7.0342e-58 3.11285e-58 1.35377e-58 5.78713e-59 2.43217e-59 1.00513e-59 4.08539e-60 1.63345e-60 6.42577e-61 2.48754e-61 9.47807e-62 3.55513e-62 1.31296e-62 4.77518e-63 1.71056e-63 6.03568e-64 2.09618e-64 7.10598e-65 2.16342e-65 0 
0 1.47275e-91 7.61854e-91 3.76253e-90 1.83816e-89 8.89486e-89 4.26323e-88 2.0237e-87 9.51322e-87 4.42839e-86 2.04109e-85 9.31415e-85 4.20773e-84 1.88165e-83 8.32868e-83 3.64855e-82 1.58172e-81 6.78523e-81 2.87993e-80 1.20931e-79 5.02334e-79 2.06395e-78 8.3871e-78 3.37044e-77 1.3393e-76 5.26181e-76 2.04368e-75 7.84621e-75 2.97734e-74 1.11652e-73 4.13736e-73 1.51477e-72 5.47873e-72 1.95736e-71 6.90661e-71 2.4066e-70 8.28002e-70 2.81247e-69 9.43008e-69 3.1207e-68 1.01914e-67 3.28401e-67 1.04398e-66 3.2737e-66 1.01245e-65 3.08767e-65 9.28416e-65 2.75193e-64 8.03981e-64 2.3147e-63 6.56617e-63 1.83494e-62 5.0507e-62 1.36905e-61 3.65387e-61 9.59997e-61 2.48251e-60 6.31733e-60 1.58168e-59 3.89546e-59 9.43569e-59 2.24738e-58 5.26238e-58 1.21117e-57 2.7394e-57 6.08763e-57 1.32891e-56 2.84913e-56 5.998e-56 1.23963e-55 2.5147e-55 5.00611e-55 9.77801e-55 1.8735e-54 3.52071e-54 6.48787e-54 1.17218e-53 2.07603e-53 3.60375e-53 6.13049e-53 1.02188e-52 1.66886e-52 2.67001e-52 4.18454e-52 6.42397e-52 9.65983e-52 1.42282e-51 2.05288e-51 2.90166e-51 4.01839e-51 5.45328e-51 7.25373e-51 9.4599e-51 1.20999e-50 1.51856e-50 1.87087e-50 2.26389e-50 2.69242e-50 3.14926e-50 3.62564e-50 4.11176e-50 4.59744e-50 5.07278e-50 5.52866e-50 5.9572e-50 6.35202e-50 6.70833e-50 7.02293e-50 7.29404e-50 7.52113e-50 7.70479e-50 7.84651e-50 7.9485e-50 8.01363e-50 8.04523e-50 8.04695e-50 8.02267e-50 7.97626e-50 7.91147e-50 7.83183e-50 7.74049e-50 7.6403e-50 7.53376e-50 7.42312e-50 7.31051e-50 7.19799e-50 7.08763e-50 6.98152e-50 6.88179e-50 6.79052e-50 6.70972e-50 6.64124e-50 6.58679e-50 6.54785e-50 6.52567e-50 6.52114e-50 6.53468e-50 6.56604e-50 6.6141e-50 6.67666e-50 6.75032e-50 6.83049e-50 6.91153e-50 6.98719e-50 7.05103e-50 7.09714e-50 7.12073e-50 7.11876e-50 7.09032e-50 7.03684e-50 6.96196e-50 6.87113e-50 6.77104e-50 6.66882e-50 6.57127e-50 6.48411e-50 6.41148e-50 6.35559e-50 6.31675e-50 6.29346e-50 6.28291e-50 6.28139e-50 6.28485e-50 6.2894e-50 6.29165e-50 6.28905e-50 6.28002e-50 6.26407e-50 6.24173e-50 6.2145e-50 6.18471e-50 6.15528e-50 6.12952e-50 6.1108e-50 6.10232e-50 6.10681e-50 6.12633e-50 6.16215e-50 6.2147e-50 6.28367e-50 6.36811e-50 6.46658e-50 6.57722e-50 6.69784e-50 6.82577e-50 6.95769e-50 7.0894e-50 7.21555e-50 7.32944e-50 7.42304e-50 7.48715e-50 7.51184e-50 7.48713e-50 7.40384e-50 7.25451e-50 7.03432e-50 6.74188e-50 6.37967e-50 5.95423e-50 5.47587e-50 4.95804e-50 4.41633e-50 3.86733e-50 3.32729e-50 2.81105e-50 2.33098e-50 1.89637e-50 1.51309e-50 1.18369e-50 9.07676e-51 6.82107e-51 5.02265e-51 3.62339e-51 2.56071e-51 1.77274e-51 1.20213e-51 7.98519e-52 5.1958e-52 3.31187e-52 2.06813e-52 1.26533e-52 7.58563e-53 4.45651e-53 2.56607e-53 1.44835e-53 8.01449e-54 4.34855e-54 2.31394e-54 1.20774e-54 6.1843e-55 3.10726e-55 1.53221e-55 7.41648e-56 3.52449e-56 1.64475e-56 7.53865e-57 3.39439e-57 1.50173e-57 6.52928e-58 2.79042e-58 1.17244e-58 4.84405e-59 1.96838e-59 7.86821e-60 3.09449e-60 1.19765e-60 4.56223e-61 1.71085e-61 6.31702e-62 2.29696e-62 8.22637e-63 2.90206e-63 1.00768e-63 3.41533e-64 1.03964e-64 0 
0 6.98156e-91 3.61152e-90 1.78359e-89 8.71358e-89 4.21651e-88 2.02094e-87 9.59323e-87 4.50973e-86 2.0993e-85 9.67611e-85 4.41562e-84 1.99484e-83 8.92098e-83 3.9488e-82 1.72992e-81 7.49992e-81 3.21746e-80 1.3657e-79 5.73505e-79 2.38243e-78 9.78939e-78 3.97834e-77 1.59886e-76 6.35388e-76 2.49653e-75 9.6974e-75 3.72347e-74 1.41307e-73 5.2997e-73 1.96408e-72 7.19177e-72 2.60152e-71 9.29563e-71 3.28046e-70 1.14325e-69 3.93401e-69 1.33648e-68 4.48191e-68 1.48346e-67 4.8455e-67 1.56167e-66 4.96552e-66 1.55739e-65 4.81752e-65 1.46952e-64 4.41959e-64 1.31032e-63 3.82901e-63 1.10266e-62 3.12871e-62 8.74552e-62 2.40784e-61 6.52848e-61 1.74286e-60 4.58036e-60 1.18479e-59 3.01586e-59 7.55304e-59 1.86077e-58 4.50855e-58 1.07417e-57 2.516e-57 5.79252e-57 1.31055e-56 2.91329e-56 6.36163e-56 1.36433e-55 2.87311e-55 5.93985e-55 1.20532e-54 2.40022e-54 4.68958e-54 8.98809e-54 1.68955e-53 3.11435e-53 5.62833e-53 9.97094e-53 1.73129e-52 2.9459e-52 4.9116e-52 8.02301e-52 1.28386e-51 2.01249e-51 3.09001e-51 4.64718e-51 6.84578e-51 9.87825e-51 1.39636e-50 1.93386e-50 2.62446e-50 3.49094e-50 4.55255e-50 5.82273e-50 7.30698e-50 9.00118e-50 1.08906e-49 1.295e-49 1.51445e-49 1.74318e-49 1.97647e-49 2.20942e-49 2.43727e-49 2.65566e-49 2.86082e-49 3.04972e-49 3.22009e-49 3.37041e-49 3.49987e-49 3.60825e-49 3.69584e-49 3.76337e-49 3.81193e-49 3.84289e-49 3.85784e-49 3.85855e-49 3.84685e-49 3.82461e-49 3.7936e-49 3.75552e-49 3.71187e-49 3.664e-49 3.6131e-49 3.56025e-49 3.50647e-49 3.45273e-49 3.40002e-49 3.34935e-49 3.30173e-49 3.25815e-49 3.21957e-49 3.18687e-49 3.16088e-49 3.1423e-49 3.13172e-49 3.12957e-49 3.13606e-49 3.15106e-49 3.17405e-49 3.20397e-49 3.2392e-49 3.27753e-49 3.3163e-49 3.35248e-49 3.38302e-49 3.40507e-49 3.41636e-49 3.41543e-49 3.40183e-49 3.37626e-49 3.34046e-49 3.29705e-49 3.24921e-49 3.20037e-49 3.15377e-49 3.11216e-49 3.0775e-49 3.05087e-49 3.03238e-49 3.02133e-49 3.01637e-49 3.01571e-49 3.01742e-49 3.01964e-49 3.02073e-49 3.01949e-49 3.01516e-49 3.0075e-49 2.99677e-49 2.9837e-49 2.9694e-49 2.95527e-49 2.94288e-49 2.93388e-49 2.92977e-49 2.93187e-49 2.94117e-49 2.95826e-49 2.98336e-49 3.01632e-49 3.05668e-49 3.10374e-49 3.15663e-49 3.21429e-49 3.27544e-49 3.33852e-49 3.40151e-49 3.46186e-49 3.51638e-49 3.56122e-49 3.59198e-49 3.6039e-49 3.5922e-49 3.55246e-49 3.48109e-49 3.37576e-49 3.23577e-49 3.0623e-49 2.85845e-49 2.62915e-49 2.38084e-49 2.12099e-49 1.85755e-49 1.59834e-49 1.35049e-49 1.11996e-49 9.11207e-50 7.27086e-50 5.6882e-50 4.3619e-50 3.27792e-50 2.41362e-50 1.74115e-50 1.23042e-50 8.51734e-51 5.77524e-51 3.83577e-51 2.49552e-51 1.59044e-51 9.93002e-52 6.0743e-52 3.64084e-52 2.13853e-52 1.2311e-52 6.94704e-53 3.84325e-53 2.08479e-53 1.10907e-53 5.78722e-54 2.96258e-54 1.48813e-54 7.33611e-55 3.54997e-55 1.68657e-55 7.86842e-56 3.60546e-56 1.62297e-56 7.17825e-57 3.12014e-57 1.3331e-57 5.59969e-58 2.31295e-58 9.39624e-59 3.75498e-59 1.47642e-59 5.71269e-60 2.17561e-60 8.15666e-61 3.01099e-61 1.09459e-61 3.91929e-62 1.38232e-62 4.79879e-63 1.62614e-63 4.94919e-64 0 
0 3.27741e-90 1.69538e-89 8.37278e-89 4.09044e-88 1.97937e-87 9.48706e-87 4.50347e-86 2.11709e-85 9.85536e-85 4.54264e-84 2.07306e-83 9.36573e-83 4.18854e-82 1.8541e-81 8.12296e-81 3.52181e-80 1.51094e-79 6.41377e-79 2.69355e-78 1.11902e-77 4.5984e-77 1.86891e-76 7.51164e-76 2.9854e-75 1.17312e-74 4.55728e-74 1.75003e-73 6.64217e-73 2.49144e-72 9.23451e-72 3.3818e-71 1.22349e-70 4.37235e-70 1.54325e-69 5.37911e-69 1.8513e-68 6.29041e-68 2.10988e-67 6.98473e-67 2.2819e-66 7.35586e-66 2.33936e-65 7.33875e-65 2.27061e-64 6.92774e-64 2.08401e-63 6.18014e-63 1.80641e-62 5.2033e-62 1.47678e-61 4.12907e-61 1.13713e-60 3.08402e-60 8.23552e-60 2.16498e-59 5.60177e-59 1.42634e-58 3.57328e-58 8.80586e-58 2.13429e-57 5.08658e-57 1.1918e-56 2.74474e-56 6.21199e-56 1.38135e-55 3.01738e-55 6.47329e-55 1.36364e-54 2.8201e-54 5.72446e-54 1.14031e-53 2.22866e-53 4.2728e-53 8.03434e-53 1.48141e-52 2.67803e-52 4.74563e-52 8.24222e-52 1.40283e-51 2.33946e-51 3.82234e-51 6.11789e-51 9.59181e-51 1.473e-50 2.21563e-50 3.26428e-50 4.71076e-50 6.65949e-50 9.22343e-50 1.25176e-49 1.66503e-49 2.1713e-49 2.77693e-49 3.48449e-49 4.2919e-49 5.19206e-49 6.17282e-49 7.21747e-49 8.30577e-49 9.41516e-49 1.05223e-48 1.16046e-48 1.26412e-48 1.36144e-48 1.45098e-48 1.53169e-48 1.60285e-48 1.6641e-48 1.71534e-48 1.75672e-48 1.7886e-48 1.8115e-48 1.82608e-48 1.83309e-48 1.83336e-48 1.82778e-48 1.81721e-48 1.80251e-48 1.78446e-48 1.76379e-48 1.74112e-48 1.71703e-48 1.69202e-48 1.66657e-48 1.64114e-48 1.6162e-48 1.59222e-48 1.56969e-48 1.54907e-48 1.53082e-48 1.51535e-48 1.50306e-48 1.49427e-48 1.48927e-48 1.48826e-48 1.49134e-48 1.49846e-48 1.50935e-48 1.52353e-48 1.54022e-48 1.55839e-48 1.57676e-48 1.59391e-48 1.60838e-48 1.61884e-48 1.62419e-48 1.62375e-48 1.61731e-48 1.6052e-48 1.58824e-48 1.56768e-48 1.54502e-48 1.5219e-48 1.49984e-48 1.48016e-48 1.46377e-48 1.4512e-48 1.44248e-48 1.43729e-48 1.43498e-48 1.4347e-48 1.43554e-48 1.4366e-48 1.43713e-48 1.43654e-48 1.43448e-48 1.43084e-48 1.42574e-48 1.41952e-48 1.41272e-48 1.40599e-48 1.40009e-48 1.3958e-48 1.39383e-48 1.3948e-48 1.39919e-48 1.40727e-48 1.41915e-48 1.43476e-48 1.45387e-48 1.47616e-48 1.50121e-48 1.52852e-48 1.55749e-48 1.58737e-48 1.61723e-48 1.64584e-48 1.6717e-48 1.69299e-48 1.70762e-48 1.71333e-48 1.70785e-48 1.68907e-48 1.65528e-48 1.60536e-48 1.53897e-48 1.45666e-48 1.35987e-48 1.25096e-48 1.13297e-48 1.00945e-48 8.84188e-49 7.60898e-49 6.42978e-49 5.33267e-49 4.33905e-49 3.46249e-49 2.70891e-49 2.07733e-49 1.56108e-49 1.14945e-49 8.29155e-50 5.85906e-50 4.05546e-50 2.74955e-50 1.82596e-50 1.18779e-50 7.56878e-51 4.72479e-51 2.88966e-51 1.73166e-51 1.01691e-51 5.85277e-52 3.3019e-52 1.82623e-52 9.90388e-53 5.26731e-53 2.74778e-53 1.40625e-53 7.06173e-54 3.48026e-54 1.68363e-54 7.99649e-55 3.72956e-55 1.70846e-55 7.68825e-56 3.39947e-56 1.47721e-56 6.30965e-57 2.64963e-57 1.09413e-57 4.4436e-58 1.77529e-58 6.97841e-59 2.69944e-59 1.02779e-59 3.85233e-60 1.42172e-60 5.16713e-61 1.84971e-61 6.52237e-62 2.26376e-62 7.66945e-63 2.33382e-63 0 
0 1.52345e-89 7.88065e-89 3.89193e-88 1.90137e-87 9.20085e-87 4.40998e-86 2.09343e-85 9.84146e-85 4.58144e-84 2.11179e-83 9.63756e-83 4.35425e-82 1.94738e-81 8.6207e-81 3.77699e-80 1.63765e-79 7.02632e-79 2.98279e-78 1.25275e-77 5.20488e-77 2.13902e-76 8.69429e-76 3.49479e-75 1.38909e-74 5.45903e-74 2.12093e-73 8.14548e-73 3.09197e-72 1.15993e-71 4.29984e-71 1.57488e-70 5.69853e-70 2.03678e-69 7.19011e-69 2.50658e-68 8.62826e-68 2.93227e-67 9.837e-67 3.25716e-66 1.06432e-65 3.43163e-65 1.09158e-64 3.42515e-64 1.05998e-63 3.23483e-63 9.7334e-63 2.88716e-62 8.44112e-62 2.43208e-61 6.90452e-61 1.93103e-60 5.31952e-60 1.44313e-59 3.85484e-59 1.01368e-58 2.62365e-58 6.68253e-58 1.67465e-57 4.12827e-57 1.0009e-56 2.38621e-56 5.59285e-56 1.28848e-55 2.91712e-55 6.48896e-55 1.41792e-54 3.04296e-54 6.41239e-54 1.32658e-53 2.69372e-53 5.36767e-53 1.04942e-52 2.01263e-52 3.78565e-52 6.98236e-52 1.26262e-51 2.2381e-51 3.88824e-51 6.61957e-51 1.10421e-50 1.80455e-50 2.88894e-50 4.53028e-50 6.95835e-50 1.04682e-49 1.54248e-49 2.22623e-49 3.14744e-49 4.35947e-49 5.91661e-49 7.86998e-49 1.02626e-48 1.31243e-48 1.64668e-48 2.028e-48 2.45297e-48 2.91581e-48 3.40858e-48 3.92168e-48 4.44443e-48 4.96581e-48 5.47514e-48 5.96267e-48 6.42004e-48 6.84058e-48 7.21934e-48 7.55308e-48 7.84012e-48 8.08008e-48 8.27375e-48 8.42284e-48 8.52981e-48 8.59777e-48 8.63029e-48 8.63128e-48 8.60485e-48 8.55511e-48 8.48602e-48 8.4013e-48 8.3043e-48 8.19798e-48 8.085e-48 7.96773e-48 7.84839e-48 7.72916e-48 7.61224e-48 7.49983e-48 7.3942e-48 7.29754e-48 7.21197e-48 7.13948e-48 7.08187e-48 7.0407e-48 7.01729e-48 7.01261e-48 7.0271e-48 7.06051e-48 7.11166e-48 7.17823e-48 7.25661e-48 7.34191e-48 7.42817e-48 7.50871e-48 7.57669e-48 7.6258e-48 7.65095e-48 7.6489e-48 7.61869e-48 7.56185e-48 7.48225e-48 7.38574e-48 7.27945e-48 7.17097e-48 7.06755e-48 6.97528e-48 6.89855e-48 6.83969e-48 6.79898e-48 6.77482e-48 6.76415e-48 6.76302e-48 6.76709e-48 6.77218e-48 6.77471e-48 6.77195e-48 6.76225e-48 6.74507e-48 6.72102e-48 6.69171e-48 6.65963e-48 6.62791e-48 6.60009e-48 6.57979e-48 6.57042e-48 6.57489e-48 6.59539e-48 6.63328e-48 6.689e-48 6.76222e-48 6.85189e-48 6.95649e-48 7.07404e-48 7.20221e-48 7.33818e-48 7.47848e-48 7.61867e-48 7.75309e-48 7.87467e-48 7.97485e-48 8.04382e-48 8.07097e-48 8.04556e-48 7.95768e-48 7.79922e-48 7.56487e-48 7.25293e-48 6.86592e-48 6.41066e-48 5.8981e-48 5.34258e-48 4.7608e-48 4.17059e-48 3.5895e-48 3.03356e-48 2.51619e-48 2.04752e-48 1.63399e-48 1.27842e-48 9.80374e-49 7.36737e-49 5.42456e-49 3.91284e-49 2.76474e-49 1.9135e-49 1.29719e-49 8.6134e-50 5.60219e-50 3.56922e-50 2.22767e-50 1.36216e-50 8.16112e-51 4.79149e-51 2.75705e-51 1.55503e-51 8.59836e-52 4.66175e-52 2.47863e-52 1.29265e-52 6.61356e-53 3.32014e-53 1.63579e-53 7.911e-54 3.75624e-54 1.75138e-54 8.02037e-55 3.60816e-55 1.59492e-55 6.92849e-56 2.95851e-56 1.24201e-56 5.12719e-57 2.08172e-57 8.31445e-58 3.26737e-58 1.26356e-58 4.80959e-59 1.80224e-59 6.64953e-60 2.41611e-60 8.64695e-61 3.04832e-61 1.05775e-61 3.58279e-62 1.09005e-62 0 