# vtk DataFile Version 3.0
Gray-Scott Simulation Output
ASCII
DATASET STRUCTURED_POINTS
DIMENSIONS 256 256 1
SPACING 1.0 1.0 1.0
ORIGIN 0 0 0
POINT_DATA 65536
SCALARS u double
LOOKUP_TABLE default
0 0 0 0 0 0 0 0 0 0 0 0 0 0 0 0 0 0 0 0 0 0 0 0 0 0 0 0 0 0 0 0 0 0 0 0 0 0 0 0 0 0 0 0 0 0 0 0 0 0 0 0 0 0 0 0 0 0 0 0 0 0 0 0 0 0 0 0 0 0 0 0 0 0 0 0 0 0 0 0 0 0 0 0 0 0 0 0 0 0 0 0 0 0 0 0 0 0 0 0 0 0 0 0 0 0 0 0 0 0 0 0 0 0 0 0 0 0 0 0 0 0 0 0 0 0 0 0 0 0 0 0 0 0 0 0 0 0 0 0 0 0 0 0 0 0 0 0 0 0 0 0 0 0 0 0 0 0 0 0 0 0 0 0 0 0 0 0 0 0 0 0 0 0 0 0 0 0 0 0 0 0 0 0 0 0 0 0 0 0 0 0 0 0 0 0 0 0 0 0 0 0 0 0 0 0 0 0 0 0 0 0 0 0 0 0 0 0 0 0 0 0 0 0 0 0 0 0 0 0 0 0 0 0 0 0 0 0 0 0 0 0 0 0 0 0 0 0 0 0 0 0 0 0 0 0 
0 1.57968e-144 1.85304e-143 2.13598e-142 2.43622e-141 2.74928e-140 3.06945e-139 3.38998e-138 3.70324e-137 4.00101e-136 4.27475e-135 4.51604e-134 4.71693e-133 4.87042e-132 4.97079e-131 5.01399e-130 4.9979e-129 4.92245e-128 4.78969e-127 4.60372e-126 4.37045e-125 4.09731e-124 3.79283e-123 3.46624e-122 3.12692e-121 2.78403e-120 2.44602e-119 2.12035e-118 1.81318e-117 1.52929e-116 1.27197e-115 1.0431e-114 8.43259e-114 6.71887e-113 5.27532e-112 4.0807e-111 3.10931e-110 2.33318e-109 1.72383e-108 1.25373e-107 8.9739e-107 6.32012e-106 4.37855e-105 2.98326e-104 1.99846e-103 1.31592e-102 8.51489e-102 5.41278e-101 3.37932e-100 2.07146e-99 1.24633e-98 7.35794e-98 4.26097e-97 2.41959e-96 1.34681e-95 7.34585e-95 3.92456e-94 2.05298e-93 1.05111e-92 5.26504e-92 2.57906e-91 1.2349e-90 5.77715e-90 2.63937e-89 1.17699e-88 5.12051e-88 2.17212e-87 8.97941e-87 3.61537e-86 1.4169e-85 5.40178e-85 2.00201e-84 7.20834e-84 2.51967e-83 8.54428e-83 2.80872e-82 8.94343e-82 2.75623e-81 8.21452e-81 2.36556e-80 6.57641e-80 1.76342e-79 4.55655e-79 1.1335e-78 2.7121e-78 6.23554e-78 1.37633e-77 2.91372e-77 5.91116e-77 1.14826e-76 2.13415e-76 3.79281e-76 6.44242e-76 1.04563e-75 1.62162e-75 2.40394e-75 3.40909e-75 4.63078e-75 6.0367e-75 7.57172e-75 9.16775e-75 1.07574e-74 1.22868e-74 1.37219e-74 1.50481e-74 1.62627e-74 1.73652e-74 1.83512e-74 1.92105e-74 1.99307e-74 2.05008e-74 2.09146e-74 2.11704e-74 2.12711e-74 2.12237e-74 2.1042e-74 2.07492e-74 2.03786e-74 1.99703e-74 1.9563e-74 1.91839e-74 1.88405e-74 1.85186e-74 1.81892e-74 1.78215e-74 1.7398e-74 1.69244e-74 1.643e-74 1.59586e-74 1.55527e-74 1.52382e-74 1.50161e-74 1.48638e-74 1.4747e-74 1.46358e-74 1.45196e-74 1.44148e-74 1.43614e-74 1.44113e-74 1.46105e-74 1.49834e-74 1.55234e-74 1.61914e-74 1.69214e-74 1.7631e-74 1.82334e-74 1.86486e-74 1.88146e-74 1.86966e-74 1.82942e-74 1.76452e-74 1.68227e-74 1.59262e-74 1.50656e-74 1.43423e-74 1.38292e-74 1.35576e-74 1.35133e-74 1.36442e-74 1.38773e-74 1.41393e-74 1.43741e-74 1.45512e-74 1.4664e-74 1.47198e-74 1.47295e-74 1.4699e-74 1.4628e-74 1.45124e-74 1.43492e-74 1.4141e-74 1.3899e-74 1.36444e-74 1.34084e-74 1.32297e-74 1.31481e-74 1.31951e-74 1.3384e-74 1.37027e-74 1.41147e-74 1.45675e-74 1.50093e-74 1.54061e-74 1.57533e-74 1.60769e-74 1.64231e-74 1.68411e-74 1.7365e-74 1.80022e-74 1.87285e-74 1.94906e-74 2.02127e-74 2.0803e-74 2.11636e-74 2.12e-74 2.08346e-74 2.00194e-74 1.87478e-74 1.70605e-74 1.50447e-74 1.28239e-74 1.05413e-74 8.33891e-75 6.33694e-75 4.61909e-75 3.22569e-75 2.15628e-75 1.37897e-75 8.43442e-76 4.93393e-76 2.76091e-76 1.47842e-76 7.5798e-77 3.72318e-77 1.75342e-77 7.92365e-78 3.43874e-78 1.43447e-78 5.75697e-79 2.22483e-79 8.28691e-80 2.97761e-80 1.03301e-80 3.46315e-81 1.12289e-81 3.52414e-82 1.07143e-82 3.15789e-83 9.0298e-84 2.50678e-84 6.76101e-85 1.77277e-85 4.52185e-86 1.12272e-86 2.71505e-87 6.39859e-88 1.47038e-88 3.29645e-89 7.21367e-90 1.54161e-90 3.21891e-91 6.56988e-92 1.31133e-92 2.56073e-93 4.89425e-94 9.15915e-95 1.67895e-95 3.01574e-96 5.30986e-97 9.16758e-98 1.55258e-98 2.58003e-99 4.2082e-100 6.73566e-101 1.03513e-101 0 
0 1.85197e-143 2.1715e-142 2.50197e-141 2.8524e-140 3.21752e-139 3.59065e-138 3.96388e-137 4.3283e-136 4.67429e-135 4.99194e-134 5.27143e-133 5.50355e-132 5.6802e-131 5.79478e-130 5.84265e-129 5.82142e-128 5.7311e-127 5.57418e-126 5.35549e-125 5.08199e-124 4.76238e-123 4.40665e-122 4.02553e-121 3.62996e-120 3.23057e-119 2.83718e-118 2.45842e-117 2.10142e-116 1.77168e-115 1.47298e-114 1.20746e-113 9.75737e-113 7.77132e-112 6.09923e-111 4.71617e-110 3.5921e-109 2.69441e-108 1.98994e-107 1.44671e-106 1.03513e-105 7.28738e-105 5.04675e-104 3.43723e-103 2.30171e-102 1.51504e-101 9.79971e-101 6.22724e-100 3.88639e-99 2.38143e-98 1.43231e-97 8.45295e-97 4.89337e-96 2.77773e-95 1.54563e-94 8.4274e-94 4.50086e-93 2.35366e-92 1.20466e-91 6.03222e-91 2.9539e-90 1.41393e-89 6.61264e-89 3.02014e-88 1.34638e-87 5.85569e-87 2.48326e-86 1.02626e-85 4.13086e-85 1.61847e-84 6.16858e-84 2.28559e-83 8.22724e-83 2.87509e-82 9.74709e-82 3.20334e-81 1.01976e-80 3.14201e-80 9.36222e-80 2.69549e-79 7.4921e-79 2.00856e-78 5.18899e-78 1.2906e-77 3.08746e-77 7.0974e-77 1.56632e-76 3.31548e-76 6.72533e-76 1.30625e-75 2.42754e-75 4.31381e-75 7.32675e-75 1.18907e-74 1.84397e-74 2.73342e-74 3.87617e-74 5.26509e-74 6.86344e-74 8.60853e-74 1.0423e-73 1.22301e-73 1.39684e-73 1.55994e-73 1.71063e-73 1.84859e-73 1.97377e-73 2.08568e-73 2.1832e-73 2.2649e-73 2.32956e-73 2.37647e-73 2.40547e-73 2.41687e-73 2.41148e-73 2.39086e-73 2.35765e-73 2.31562e-73 2.26932e-73 2.22313e-73 2.18015e-73 2.14119e-73 2.10467e-73 2.06729e-73 2.02555e-73 1.97747e-73 1.9237e-73 1.86758e-73 1.81406e-73 1.76798e-73 1.73228e-73 1.70706e-73 1.68978e-73 1.67654e-73 1.66394e-73 1.6508e-73 1.63896e-73 1.63298e-73 1.6387e-73 1.66136e-73 1.70372e-73 1.76503e-73 1.84083e-73 1.92365e-73 2.00416e-73 2.07248e-73 2.11955e-73 2.13834e-73 2.12489e-73 2.07919e-73 2.00549e-73 1.91211e-73 1.81033e-73 1.71264e-73 1.63052e-73 1.57227e-73 1.54143e-73 1.5364e-73 1.55126e-73 1.57773e-73 1.6075e-73 1.63419e-73 1.65433e-73 1.66717e-73 1.67355e-73 1.67468e-73 1.67125e-73 1.66323e-73 1.65014e-73 1.63164e-73 1.60801e-73 1.58052e-73 1.55157e-73 1.52471e-73 1.50434e-73 1.49498e-73 1.50021e-73 1.52155e-73 1.55764e-73 1.60433e-73 1.65567e-73 1.7058e-73 1.75083e-73 1.79026e-73 1.82701e-73 1.86634e-73 1.91382e-73 1.97332e-73 2.04566e-73 2.1281e-73 2.2146e-73 2.29654e-73 2.36351e-73 2.40439e-73 2.40847e-73 2.36693e-73 2.27432e-73 2.12988e-73 1.93824e-73 1.70928e-73 1.45703e-73 1.19775e-73 9.47559e-74 7.20121e-74 5.24945e-74 3.66621e-74 2.45097e-74 1.56759e-74 9.58912e-75 5.61006e-75 3.13965e-75 1.68146e-75 8.62204e-76 4.23579e-76 1.99516e-76 9.01762e-77 3.91422e-77 1.63313e-77 6.55555e-78 2.53397e-78 9.44039e-79 3.39283e-79 1.17733e-79 3.94792e-80 1.28038e-80 4.01941e-81 1.22231e-81 3.60356e-82 1.03069e-82 2.86211e-83 7.72151e-84 2.02519e-84 5.16721e-85 1.28333e-85 3.10439e-86 7.31838e-87 1.68226e-87 3.77265e-88 8.25837e-89 1.76544e-89 3.68746e-90 7.52869e-91 1.50321e-91 2.93641e-92 5.61419e-93 1.05101e-93 1.92725e-94 3.46297e-95 6.09945e-96 1.05346e-96 1.78473e-97 2.96688e-98 4.84096e-99 7.7513e-100 1.19163e-100 0 
0 2.13349e-142 2.50048e-141 2.87973e-140 3.28161e-139 3.70004e-138 4.12729e-137 4.55429e-136 4.9708e-135 5.36579e-134 5.72792e-133 6.04597e-132 6.30946e-131 6.50914e-130 6.63757e-129 6.68951e-128 6.66234e-127 6.55616e-126 6.37392e-125 6.12125e-124 5.80617e-123 5.43872e-122 5.03034e-121 4.59334e-120 4.14025e-119 3.68318e-118 3.23333e-117 2.80052e-116 2.39286e-115 2.01656e-114 1.67589e-113 1.37324e-112 1.10925e-111 8.83113e-111 6.92824e-110 5.35506e-109 4.0771e-108 3.05699e-107 2.25684e-106 1.64011e-105 1.17305e-104 8.25519e-104 5.71481e-103 3.89075e-102 2.60443e-101 1.71365e-100 1.10803e-99 7.03837e-99 4.39101e-98 2.68967e-97 1.61712e-96 9.54019e-96 5.52081e-95 3.1328e-94 1.7426e-93 9.4981e-93 5.07098e-92 2.6509e-91 1.35635e-90 6.78955e-90 3.32369e-89 1.59043e-88 7.43573e-88 3.39501e-87 1.51304e-86 6.57853e-86 2.78898e-85 1.15228e-84 4.63675e-84 1.81618e-83 6.9202e-83 2.56339e-82 9.22482e-82 3.22288e-81 1.09235e-80 3.58908e-80 1.14229e-79 3.51875e-79 1.04825e-78 3.01739e-78 8.3851e-78 2.24753e-77 5.80526e-77 1.44362e-76 3.45294e-76 7.9363e-76 1.75119e-75 3.70629e-75 7.51712e-75 1.45987e-74 2.71273e-74 4.82015e-74 8.18605e-74 1.32843e-73 2.05996e-73 3.05345e-73 4.32983e-73 5.88115e-73 7.66636e-73 9.61544e-73 1.16419e-72 1.36602e-72 1.56014e-72 1.74224e-72 1.91044e-72 2.06437e-72 2.20401e-72 2.3288e-72 2.43751e-72 2.52855e-72 2.60059e-72 2.65284e-72 2.68513e-72 2.69781e-72 2.69179e-72 2.6688e-72 2.63179e-72 2.58497e-72 2.53339e-72 2.48195e-72 2.43406e-72 2.39066e-72 2.34996e-72 2.30827e-72 2.26173e-72 2.20811e-72 2.14814e-72 2.08555e-72 2.02587e-72 1.97448e-72 1.93466e-72 1.90653e-72 1.88727e-72 1.87252e-72 1.85851e-72 1.84391e-72 1.83078e-72 1.82418e-72 1.83064e-72 1.85597e-72 1.90324e-72 1.9716e-72 2.05611e-72 2.14843e-72 2.23814e-72 2.31426e-72 2.36669e-72 2.38757e-72 2.37253e-72 2.32152e-72 2.23931e-72 2.13516e-72 2.02165e-72 1.9127e-72 1.82112e-72 1.75615e-72 1.72176e-72 1.71614e-72 1.73272e-72 1.76226e-72 1.79548e-72 1.82528e-72 1.84779e-72 1.86214e-72 1.8693e-72 1.8706e-72 1.86683e-72 1.85792e-72 1.84335e-72 1.82274e-72 1.7964e-72 1.76571e-72 1.73338e-72 1.70336e-72 1.68054e-72 1.66999e-72 1.6757e-72 1.69938e-72 1.73953e-72 1.7915e-72 1.8487e-72 1.90456e-72 1.95477e-72 1.99875e-72 2.03976e-72 2.08366e-72 2.13663e-72 2.20301e-72 2.2837e-72 2.37563e-72 2.47208e-72 2.56341e-72 2.63805e-72 2.68359e-72 2.68807e-72 2.64167e-72 2.53831e-72 2.37714e-72 2.16331e-72 1.90783e-72 1.62635e-72 1.33701e-72 1.05779e-72 8.03946e-73 5.86094e-73 4.0936e-73 2.73694e-73 1.75066e-73 1.07102e-73 6.26665e-74 3.50756e-74 1.87875e-74 9.63507e-75 4.73419e-75 2.23029e-75 1.00821e-75 4.37704e-76 1.82658e-76 7.33352e-77 2.83527e-77 1.05651e-77 3.79789e-78 1.31819e-78 4.42131e-79 1.43426e-79 4.50359e-80 1.3699e-80 4.03973e-81 1.15576e-81 3.21027e-82 8.66322e-83 2.27283e-83 5.80073e-84 1.4411e-84 3.48708e-85 8.22304e-86 1.8908e-86 4.24166e-87 9.28799e-88 1.98619e-88 4.14989e-89 8.47564e-90 1.69285e-90 3.30798e-91 6.32677e-92 1.18482e-92 2.17338e-93 3.9066e-94 6.88329e-95 1.18926e-95 2.01554e-96 3.35181e-97 5.47104e-98 8.76342e-99 1.34771e-99 0 
0 2.43189e-141 2.84897e-140 3.27962e-139 3.73564e-138 4.21009e-137 4.69417e-136 5.17754e-135 5.64856e-134 6.09474e-133 6.50322e-132 6.86133e-131 7.15724e-130 7.38056e-129 7.52292e-128 7.57854e-127 7.54451e-126 7.42109e-125 7.21173e-124 6.92291e-123 6.56379e-122 6.14579e-121 5.68193e-120 5.18616e-119 4.67263e-118 4.15506e-117 3.64607e-116 3.15671e-115 2.69609e-114 2.27118e-113 1.88673e-112 1.54537e-111 1.24779e-110 9.93013e-110 7.78732e-109 6.01668e-108 4.57902e-107 3.43199e-106 2.53269e-105 1.83987e-104 1.31541e-103 9.25352e-103 6.40348e-102 4.35797e-101 2.91608e-100 1.918e-99 1.2397e-98 7.87187e-98 4.90921e-97 3.006e-96 1.80666e-95 1.06546e-94 6.16358e-94 3.49633e-93 1.94413e-92 1.0593e-91 5.65363e-91 2.95451e-90 1.51119e-89 7.56222e-89 3.70075e-88 1.7703e-87 8.2741e-87 3.77663e-86 1.68261e-85 7.31364e-85 3.09972e-84 1.28029e-83 5.15046e-83 2.01684e-82 7.68271e-82 2.8451e-81 1.02359e-80 3.57524e-80 1.21148e-79 3.97957e-79 1.26627e-78 3.89982e-78 1.16152e-77 3.34275e-77 9.28742e-77 2.48891e-76 6.42757e-76 1.5981e-75 3.8218e-75 8.78275e-75 1.93769e-74 4.10044e-74 8.31552e-74 1.61474e-73 3.0002e-73 5.33046e-73 9.052e-73 1.46886e-72 2.27759e-72 3.37588e-72 4.78687e-72 6.50176e-72 8.47518e-72 1.06297e-71 1.28698e-71 1.51006e-71 1.72461e-71 1.92583e-71 2.11164e-71 2.28165e-71 2.4358e-71 2.57352e-71 2.69344e-71 2.79385e-71 2.87328e-71 2.93088e-71 2.96646e-71 2.98042e-71 2.97375e-71 2.9484e-71 2.90758e-71 2.85596e-71 2.7991e-71 2.74239e-71 2.68959e-71 2.64173e-71 2.59683e-71 2.55083e-71 2.49946e-71 2.44029e-71 2.3741e-71 2.30502e-71 2.23916e-71 2.18243e-71 2.13848e-71 2.10743e-71 2.08617e-71 2.06992e-71 2.0545e-71 2.03845e-71 2.02403e-71 2.01684e-71 2.02405e-71 2.05206e-71 2.10426e-71 2.17972e-71 2.27296e-71 2.37479e-71 2.47374e-71 2.55767e-71 2.61546e-71 2.63844e-71 2.62177e-71 2.56543e-71 2.47467e-71 2.35971e-71 2.23442e-71 2.11417e-71 2.01309e-71 1.94138e-71 1.90341e-71 1.89721e-71 1.91552e-71 1.94813e-71 1.98483e-71 2.01776e-71 2.04265e-71 2.05855e-71 2.06649e-71 2.06797e-71 2.06386e-71 2.05407e-71 2.03803e-71 2.01531e-71 1.98623e-71 1.95235e-71 1.9166e-71 1.88338e-71 1.85809e-71 1.84631e-71 1.85249e-71 1.87849e-71 1.92268e-71 1.97995e-71 2.04301e-71 2.10462e-71 2.16002e-71 2.20857e-71 2.25387e-71 2.30235e-71 2.36086e-71 2.43414e-71 2.52321e-71 2.62466e-71 2.73109e-71 2.83186e-71 2.91418e-71 2.96437e-71 2.96926e-71 2.91796e-71 2.80379e-71 2.6258e-71 2.38965e-71 2.10752e-71 1.79666e-71 1.47709e-71 1.16868e-71 8.88289e-72 6.4763e-72 4.52377e-72 3.02481e-72 1.93498e-72 1.1839e-72 6.92796e-73 3.87818e-73 2.07754e-73 1.06561e-73 5.23663e-74 2.46738e-74 1.11557e-74 4.84402e-75 2.02183e-75 8.11898e-76 3.13957e-76 1.17015e-76 4.2073e-77 1.46061e-77 4.90014e-78 1.58997e-78 4.99375e-79 1.51938e-79 4.48168e-80 1.28253e-80 3.56338e-81 9.61875e-82 2.52423e-82 6.44419e-83 1.60143e-83 3.87617e-84 9.14332e-85 2.10306e-85 4.71927e-86 1.03371e-86 2.21124e-87 4.62161e-88 9.44216e-89 1.88652e-89 3.68767e-90 7.05535e-91 1.32171e-91 2.42534e-92 4.36101e-93 7.68667e-94 1.32854e-94 2.2524e-95 3.74706e-96 6.11843e-97 9.80402e-98 1.50828e-98 0 
0 2.74269e-140 3.21166e-139 3.69549e-138 4.20748e-137 4.73976e-136 5.28242e-135 5.8238e-134 6.35083e-133 6.84949e-132 7.30537e-131 7.70431e-130 8.03309e-129 8.28015e-128 8.43624e-127 8.49495e-126 8.45319e-125 8.31137e-124 8.07346e-123 7.74683e-122 7.34188e-121 6.87144e-120 6.35015e-119 5.79365e-118 5.2178e-117 4.63792e-116 4.06811e-115 3.52066e-114 3.0057e-113 2.53096e-112 2.10169e-111 1.72074e-110 1.38884e-109 1.10482e-108 8.66066e-108 6.6888e-107 5.08855e-106 3.81239e-105 2.81232e-104 2.04222e-103 1.45952e-102 1.02634e-101 7.09963e-101 4.82992e-100 3.23068e-99 2.12413e-98 1.37243e-97 8.71151e-97 5.43089e-96 3.32425e-95 1.99723e-94 1.17743e-93 6.80893e-93 3.86108e-92 2.14622e-91 1.16902e-90 6.23713e-90 3.25837e-89 1.66607e-88 8.33457e-88 4.07742e-87 1.94988e-86 9.11063e-86 4.1572e-85 1.85161e-84 8.04588e-84 3.40908e-83 1.40768e-82 5.66133e-82 2.21629e-81 8.44024e-81 3.12482e-80 1.12395e-79 3.9248e-79 1.32961e-78 4.3666e-78 1.38912e-77 4.27721e-77 1.27366e-76 3.66473e-76 1.018e-75 2.72761e-75 7.04277e-75 1.75076e-74 4.18623e-74 9.6188e-74 2.12185e-73 4.48957e-73 9.10356e-73 1.76757e-72 3.28385e-72 5.83391e-72 9.90619e-72 1.60736e-71 2.49222e-71 3.69384e-71 5.23755e-71 7.11373e-71 9.27273e-71 1.16299e-70 1.40805e-70 1.65208e-70 1.88675e-70 2.10681e-70 2.30996e-70 2.49577e-70 2.66419e-70 2.81459e-70 2.94552e-70 3.05511e-70 3.14179e-70 3.20462e-70 3.24343e-70 3.25863e-70 3.25133e-70 3.22365e-70 3.17911e-70 3.12278e-70 3.06074e-70 2.99887e-70 2.94127e-70 2.88904e-70 2.84002e-70 2.78979e-70 2.73369e-70 2.66905e-70 2.59676e-70 2.52131e-70 2.44936e-70 2.38741e-70 2.3394e-70 2.30548e-70 2.28227e-70 2.26453e-70 2.24774e-70 2.23027e-70 2.21462e-70 2.20685e-70 2.21482e-70 2.24547e-70 2.30253e-70 2.38495e-70 2.48675e-70 2.59792e-70 2.70592e-70 2.79751e-70 2.86054e-70 2.88557e-70 2.8673e-70 2.80571e-70 2.70655e-70 2.58096e-70 2.44411e-70 2.31277e-70 2.20235e-70 2.12402e-70 2.08254e-70 2.07577e-70 2.09577e-70 2.13142e-70 2.17154e-70 2.20755e-70 2.23479e-70 2.2522e-70 2.26093e-70 2.2626e-70 2.25816e-70 2.24752e-70 2.23004e-70 2.20525e-70 2.17349e-70 2.13645e-70 2.09735e-70 2.06097e-70 2.03322e-70 2.02022e-70 2.02681e-70 2.05507e-70 2.10321e-70 2.16565e-70 2.23445e-70 2.3017e-70 2.36221e-70 2.41525e-70 2.46476e-70 2.51775e-70 2.58169e-70 2.66177e-70 2.75906e-70 2.86987e-70 2.98609e-70 3.09611e-70 3.18598e-70 3.24072e-70 3.24598e-70 3.18986e-70 3.06506e-70 2.87051e-70 2.61242e-70 2.30407e-70 1.9643e-70 1.615e-70 1.27787e-70 9.71345e-71 7.08234e-71 4.94749e-71 3.30842e-71 2.11661e-71 1.29516e-71 7.57986e-72 4.24361e-72 2.27359e-72 1.16632e-72 5.73242e-73 2.7014e-73 1.22158e-73 5.30523e-74 2.21473e-74 8.89528e-75 3.44044e-75 1.28255e-75 4.61241e-76 1.6016e-76 5.37435e-77 1.74424e-77 5.4796e-78 1.66762e-78 4.92017e-79 1.40838e-79 3.91407e-80 1.05683e-80 2.77417e-81 7.08427e-82 1.761e-82 4.26365e-83 1.00603e-83 2.31468e-84 5.19575e-85 1.13843e-85 2.43602e-86 5.09305e-87 1.04087e-87 2.08033e-88 4.06785e-89 7.78535e-90 1.45896e-90 2.67811e-91 4.81721e-92 8.49373e-93 1.46855e-93 2.49066e-94 4.14492e-95 6.77055e-96 1.08529e-96 1.67023e-97 0 
0 3.06016e-139 3.58184e-138 4.11961e-137 4.68829e-136 5.27907e-135 5.88089e-134 6.48076e-133 7.06415e-132 7.61551e-131 8.11884e-130 8.55849e-129 8.91987e-128 9.19025e-127 9.35947e-126 9.42058e-125 9.37026e-124 9.20914e-123 8.94174e-122 8.57637e-121 8.12463e-120 7.60085e-119 7.02129e-118 6.40331e-117 5.76448e-116 5.12173e-115 4.49063e-114 3.88473e-113 3.31517e-112 2.79042e-111 2.31621e-110 1.89562e-109 1.52937e-108 1.21613e-107 9.52946e-107 7.3569e-106 5.59462e-105 4.18991e-104 3.08962e-103 2.24273e-102 1.60221e-101 1.12625e-100 7.78782e-100 5.29613e-99 3.5412e-98 2.32745e-97 1.50324e-96 9.53841e-96 5.94426e-95 3.63719e-94 2.18447e-93 1.28737e-92 7.44213e-92 4.2187e-91 2.34422e-90 1.27644e-89 6.80802e-89 3.55545e-88 1.81739e-87 9.08866e-87 4.44495e-86 2.12498e-85 9.92576e-85 4.5278e-84 2.01608e-83 8.75803e-83 3.70978e-82 1.53141e-81 6.1573e-81 2.40981e-80 9.17483e-80 3.39593e-79 1.22116e-78 4.26323e-78 1.44393e-77 4.74095e-77 1.50787e-76 4.64189e-76 1.38197e-75 3.9756e-75 1.10415e-74 2.9579e-74 7.63607e-74 1.89794e-73 4.53746e-73 1.04243e-72 2.29923e-72 4.8643e-72 9.86228e-72 1.91469e-71 3.55684e-71 6.31836e-71 1.0728e-70 1.74061e-70 2.69868e-70 3.99969e-70 5.67104e-70 7.70232e-70 1.00398e-69 1.25917e-69 1.52448e-69 1.78866e-69 2.04267e-69 2.28082e-69 2.50061e-69 2.70157e-69 2.88365e-69 3.0462e-69 3.18764e-69 3.30602e-69 3.39961e-69 3.46744e-69 3.50931e-69 3.52569e-69 3.51779e-69 3.48788e-69 3.43977e-69 3.37895e-69 3.31198e-69 3.24519e-69 3.183e-69 3.12659e-69 3.07364e-69 3.01937e-69 2.95873e-69 2.88886e-69 2.81073e-69 2.72918e-69 2.65142e-69 2.58445e-69 2.53256e-69 2.4959e-69 2.47081e-69 2.45167e-69 2.43357e-69 2.41477e-69 2.39794e-69 2.38965e-69 2.39835e-69 2.43156e-69 2.49326e-69 2.58234e-69 2.69235e-69 2.81244e-69 2.92908e-69 3.02799e-69 3.09602e-69 3.12298e-69 3.10316e-69 3.03655e-69 2.92933e-69 2.79358e-69 2.64565e-69 2.50368e-69 2.38434e-69 2.29966e-69 2.25483e-69 2.24751e-69 2.26914e-69 2.30769e-69 2.35109e-69 2.39007e-69 2.41957e-69 2.43845e-69 2.44794e-69 2.4498e-69 2.44505e-69 2.4336e-69 2.41476e-69 2.38799e-69 2.35367e-69 2.3136e-69 2.27127e-69 2.23184e-69 2.20171e-69 2.18751e-69 2.19448e-69 2.22486e-69 2.27675e-69 2.34413e-69 2.4184e-69 2.49104e-69 2.55643e-69 2.61378e-69 2.66732e-69 2.72464e-69 2.79379e-69 2.88037e-69 2.98555e-69 3.10531e-69 3.2309e-69 3.34976e-69 3.44683e-69 3.50593e-69 3.51152e-69 3.45076e-69 3.31575e-69 3.10533e-69 2.82621e-69 2.4927e-69 2.12521e-69 1.74739e-69 1.38271e-69 1.0511e-69 7.6644e-70 5.35451e-70 3.5809e-70 2.29114e-70 1.4021e-70 8.20657e-71 4.59501e-71 2.46216e-71 1.26323e-71 6.20958e-72 2.9267e-72 1.32367e-72 5.74957e-73 2.40064e-73 9.64375e-74 3.73064e-74 1.39101e-74 5.0035e-75 1.73777e-75 5.83258e-76 1.89339e-76 5.94956e-77 1.81108e-77 5.34476e-78 1.53031e-78 4.25403e-79 1.14892e-79 3.01675e-80 7.70587e-81 1.91606e-81 4.64041e-82 1.09525e-82 2.52071e-83 5.65994e-84 1.24052e-84 2.6553e-85 5.55327e-86 1.13529e-86 2.26978e-87 4.43976e-88 8.49998e-89 1.59342e-89 2.92592e-90 5.26476e-91 9.2861e-92 1.60612e-92 2.72494e-93 4.53642e-94 7.41272e-95 1.18866e-95 1.82995e-96 0 
0 3.37753e-138 3.95159e-137 4.54287e-136 5.16769e-135 5.81633e-134 6.47656e-133 7.13407e-132 7.77289e-131 8.37591e-130 8.92563e-129 9.40491e-128 9.79781e-127 1.00905e-125 1.02719e-124 1.03345e-123 1.02749e-122 1.0094e-121 9.79675e-121 9.39249e-120 8.89403e-119 8.31718e-118 7.6798e-117 7.00096e-116 6.2999e-115 5.59516e-114 4.90371e-113 4.24035e-112 3.61718e-111 3.0434e-110 2.52518e-109 2.06582e-108 1.66602e-107 1.32427e-106 1.03728e-105 8.00481e-105 6.08496e-104 4.55538e-103 3.35783e-102 2.43648e-101 1.73997e-100 1.22263e-99 8.4511e-99 5.74506e-98 3.83997e-97 2.52289e-96 1.62888e-95 1.03319e-94 6.43648e-94 3.93698e-93 2.3637e-92 1.39252e-91 8.0472e-91 4.56015e-90 2.53311e-89 1.37883e-88 7.35175e-88 3.83817e-87 1.96128e-86 9.80518e-86 4.79389e-85 2.2911e-84 1.06985e-83 4.87886e-83 2.17177e-82 9.43167e-82 3.99401e-81 1.6483e-80 6.62548e-80 2.59236e-79 9.86736e-79 3.65135e-78 1.31269e-77 4.5817e-77 1.55143e-76 5.09281e-76 1.61944e-75 4.98431e-75 1.48362e-74 4.2672e-74 1.18492e-73 3.17372e-73 8.1919e-73 2.03577e-72 4.86626e-72 1.11782e-71 2.46519e-71 5.21477e-71 1.05717e-70 2.05222e-70 3.81198e-70 6.77108e-70 1.14959e-69 1.86509e-69 2.89155e-69 4.28537e-69 6.07593e-69 8.25205e-69 1.07562e-68 1.349e-68 1.63321e-68 1.91619e-68 2.18825e-68 2.44327e-68 2.67857e-68 2.89362e-68 3.0884e-68 3.26222e-68 3.41343e-68 3.53993e-68 3.63992e-68 3.71237e-68 3.75707e-68 3.77454e-68 3.76607e-68 3.73409e-68 3.68269e-68 3.61772e-68 3.54617e-68 3.47482e-68 3.40839e-68 3.34813e-68 3.29153e-68 3.2335e-68 3.16865e-68 3.09393e-68 3.01037e-68 2.92316e-68 2.84e-68 2.76839e-68 2.71288e-68 2.67368e-68 2.64686e-68 2.62642e-68 2.60711e-68 2.58709e-68 2.56919e-68 2.56043e-68 2.56984e-68 2.60542e-68 2.67145e-68 2.76672e-68 2.88433e-68 3.01269e-68 3.13734e-68 3.24302e-68 3.31567e-68 3.34442e-68 3.32315e-68 3.25185e-68 3.13715e-68 2.99194e-68 2.83373e-68 2.6819e-68 2.55427e-68 2.4637e-68 2.41575e-68 2.40792e-68 2.43107e-68 2.47233e-68 2.51879e-68 2.56053e-68 2.59213e-68 2.61239e-68 2.6226e-68 2.62465e-68 2.61963e-68 2.60744e-68 2.58734e-68 2.55874e-68 2.52204e-68 2.47915e-68 2.4338e-68 2.39151e-68 2.35915e-68 2.34379e-68 2.35108e-68 2.3834e-68 2.43874e-68 2.51068e-68 2.59002e-68 2.66766e-68 2.73757e-68 2.79892e-68 2.85622e-68 2.91757e-68 2.99156e-68 3.08419e-68 3.19668e-68 3.32476e-68 3.45904e-68 3.5861e-68 3.68984e-68 3.75296e-68 3.75884e-68 3.69376e-68 3.54924e-68 3.32405e-68 3.02534e-68 2.66844e-68 2.27514e-68 1.87075e-68 1.48041e-68 1.12544e-68 8.20708e-69 5.73407e-69 3.83505e-69 2.45397e-69 1.50189e-69 8.79158e-70 4.92312e-70 2.63829e-70 1.35377e-70 6.65554e-71 3.13735e-71 1.41916e-71 6.16533e-72 2.57468e-72 1.03447e-72 4.00255e-73 1.49269e-73 5.3703e-74 1.86556e-74 6.26283e-75 2.03351e-75 6.39133e-76 1.94602e-76 5.74438e-77 1.64514e-77 4.57441e-78 1.23577e-78 3.24566e-79 8.29286e-80 2.06259e-80 4.9967e-81 1.17969e-81 2.71584e-82 6.0999e-83 1.33736e-83 2.86346e-84 5.99049e-85 1.22506e-85 2.45004e-86 4.79394e-87 9.18107e-88 1.72167e-88 3.1625e-89 5.69239e-90 1.00438e-90 1.73778e-91 2.94935e-92 4.91176e-93 8.02892e-94 1.28794e-94 1.98348e-95 0 
0 3.6872e-137 4.31202e-136 4.95505e-135 5.63408e-134 6.33848e-133 7.0549e-132 7.76774e-131 8.45961e-130 9.11196e-129 9.7058e-128 1.02226e-126 1.0645e-125 1.09583e-124 1.11505e-123 1.12138e-122 1.11444e-121 1.09435e-120 1.06168e-119 1.01744e-118 9.63046e-118 9.00209e-117 8.30878e-116 7.57122e-115 6.81026e-114 6.04594e-113 5.29663e-112 4.57826e-111 3.90386e-110 3.28328e-109 2.72313e-108 2.22687e-107 1.79519e-106 1.42638e-105 1.11682e-104 8.61533e-104 6.54653e-103 4.89904e-102 3.60976e-101 2.6183e-100 1.86911e-99 1.31287e-98 9.07156e-98 6.16458e-97 4.11886e-96 2.70514e-95 1.74593e-94 1.10704e-93 6.89409e-93 4.21541e-92 2.52999e-91 1.48997e-90 8.60747e-90 4.87601e-89 2.70767e-88 1.47337e-87 7.85326e-87 4.09869e-86 2.09374e-85 1.04642e-84 5.11453e-84 2.4436e-83 1.14073e-82 5.20057e-82 2.31432e-81 1.00479e-80 4.25381e-80 1.75504e-79 7.0527e-79 2.75881e-78 1.04983e-77 3.88388e-77 1.39596e-76 4.87121e-76 1.6491e-75 5.41224e-75 1.72065e-74 5.29477e-74 1.57572e-73 4.53128e-73 1.25803e-72 3.36898e-72 8.69448e-72 2.16035e-71 5.1633e-71 1.18589e-70 2.615e-70 5.53106e-70 1.12118e-69 2.17627e-69 4.04206e-69 7.17924e-69 1.21881e-68 1.97729e-68 3.06536e-68 4.54281e-68 6.44076e-68 8.74738e-68 1.14016e-67 1.42993e-67 1.73117e-67 2.03108e-67 2.31938e-67 2.58957e-67 2.83879e-67 3.06648e-67 3.27263e-67 3.45653e-67 3.61645e-67 3.75019e-67 3.85589e-67 3.93244e-67 3.97966e-67 3.99809e-67 3.98911e-67 3.95529e-67 3.90095e-67 3.83227e-67 3.75666e-67 3.68125e-67 3.61104e-67 3.54733e-67 3.48749e-67 3.4261e-67 3.35749e-67 3.27844e-67 3.19003e-67 3.09775e-67 3.00977e-67 2.93399e-67 2.87526e-67 2.83378e-67 2.80542e-67 2.78382e-67 2.76345e-67 2.74235e-67 2.72352e-67 2.71437e-67 2.72442e-67 2.76215e-67 2.83206e-67 2.93286e-67 3.05725e-67 3.193e-67 3.32479e-67 3.4365e-67 3.51327e-67 3.54358e-67 3.521e-67 3.44549e-67 3.3241e-67 3.17044e-67 3.00303e-67 2.84237e-67 2.70732e-67 2.61149e-67 2.56074e-67 2.55247e-67 2.57697e-67 2.62066e-67 2.66987e-67 2.71409e-67 2.7476e-67 2.7691e-67 2.77996e-67 2.7822e-67 2.77695e-67 2.76411e-67 2.74289e-67 2.71266e-67 2.67383e-67 2.62841e-67 2.58034e-67 2.53548e-67 2.50108e-67 2.48466e-67 2.49217e-67 2.5262e-67 2.58459e-67 2.66057e-67 2.74443e-67 2.82652e-67 2.90048e-67 2.96541e-67 3.02608e-67 3.09104e-67 3.16938e-67 3.26742e-67 3.38646e-67 3.52196e-67 3.66401e-67 3.7984e-67 3.90809e-67 3.97478e-67 3.9809e-67 3.91192e-67 3.75887e-67 3.52043e-67 3.20415e-67 2.82625e-67 2.4098e-67 1.98159e-67 1.56821e-67 1.19226e-67 8.69495e-68 6.07538e-68 4.06365e-68 2.60047e-68 1.5917e-68 9.31824e-69 5.21861e-69 2.79697e-69 1.43536e-69 7.05764e-70 3.32736e-70 1.50533e-70 6.54073e-71 2.73189e-71 1.09783e-71 4.24846e-72 1.58469e-72 5.70243e-73 1.98134e-73 6.65291e-74 2.16064e-74 6.79242e-75 2.06862e-75 6.10774e-76 1.74963e-76 4.86617e-77 1.31493e-77 3.45447e-78 8.82875e-79 2.19647e-79 5.32254e-80 1.25697e-80 2.8946e-81 6.50333e-82 1.42623e-82 3.05469e-83 6.39253e-84 1.30769e-84 2.61613e-85 5.12056e-86 9.80981e-87 1.84018e-87 3.38132e-88 6.08832e-89 1.07461e-89 1.85992e-90 3.15776e-91 5.26069e-92 8.60235e-93 1.38042e-93 2.12663e-94 0 
0 3.98098e-136 4.65356e-135 5.34517e-134 6.075e-133 6.83155e-132 7.60038e-131 8.36469e-130 9.10579e-129 9.80373e-128 1.04382e-126 1.09892e-125 1.14384e-124 1.177e-123 1.19714e-122 1.20342e-121 1.19547e-120 1.17343e-119 1.13792e-118 1.09005e-117 1.03134e-116 9.63647e-116 8.89063e-115 8.09808e-114 7.28119e-113 6.46139e-112 5.65829e-111 4.88889e-110 4.16706e-109 3.50324e-108 2.9044e-107 2.37417e-106 1.91319e-105 1.51954e-104 1.1893e-103 9.17088e-103 6.96599e-102 5.21095e-101 3.83813e-100 2.78289e-99 1.98586e-98 1.39437e-97 9.63109e-97 6.54241e-96 4.36973e-95 2.86888e-94 1.85094e-93 1.17321e-92 7.30362e-92 4.46427e-91 2.67843e-90 1.57686e-89 9.10634e-89 5.15691e-88 2.86271e-87 1.55723e-86 8.29761e-86 4.32924e-85 2.21083e-84 1.1046e-83 5.39726e-83 2.57792e-82 1.20308e-81 5.48327e-81 2.43944e-80 1.05882e-79 4.48135e-79 1.84843e-78 7.42609e-78 2.90414e-77 1.10486e-76 4.0865e-76 1.46844e-75 5.123e-75 1.73396e-74 5.68957e-74 1.80846e-73 5.56387e-73 1.6555e-72 4.75984e-72 1.32126e-71 3.53773e-71 9.12861e-71 2.26789e-70 5.4196e-70 1.2446e-69 2.74414e-69 5.80359e-69 1.1763e-68 2.28307e-68 4.2401e-68 7.53047e-68 1.27837e-67 2.0738e-67 3.21485e-67 4.76421e-67 6.7545e-67 9.17331e-67 1.19566e-66 1.49952e-66 1.81539e-66 2.12985e-66 2.43209e-66 2.71528e-66 2.97642e-66 3.21491e-66 3.43076e-66 3.62323e-66 3.79054e-66 3.93043e-66 4.04095e-66 4.12098e-66 4.17032e-66 4.18955e-66 4.18013e-66 4.14474e-66 4.0879e-66 4.01609e-66 3.93704e-66 3.85821e-66 3.78479e-66 3.71818e-66 3.65558e-66 3.59134e-66 3.51953e-66 3.43679e-66 3.34425e-66 3.24766e-66 3.15557e-66 3.07626e-66 3.01479e-66 2.97137e-66 2.94169e-66 2.91912e-66 2.89786e-66 2.87586e-66 2.85626e-66 2.8468e-66 2.85743e-66 2.89701e-66 2.97022e-66 3.07573e-66 3.2059e-66 3.3479e-66 3.48575e-66 3.60256e-66 3.68281e-66 3.71443e-66 3.69071e-66 3.61162e-66 3.48451e-66 3.32364e-66 3.1484e-66 2.98023e-66 2.83886e-66 2.73855e-66 2.68543e-66 2.67677e-66 2.70245e-66 2.74821e-66 2.79977e-66 2.84612e-66 2.88127e-66 2.90384e-66 2.91528e-66 2.91769e-66 2.91226e-66 2.89889e-66 2.87672e-66 2.84511e-66 2.80446e-66 2.75688e-66 2.70648e-66 2.65939e-66 2.62322e-66 2.60584e-66 2.61351e-66 2.64894e-66 2.70989e-66 2.78928e-66 2.87696e-66 2.96283e-66 3.04023e-66 3.10821e-66 3.17175e-66 3.2398e-66 3.32184e-66 3.4245e-66 3.54912e-66 3.69095e-66 3.83959e-66 3.98021e-66 4.09494e-66 4.16465e-66 4.17094e-66 4.09861e-66 3.93826e-66 3.68849e-66 3.35721e-66 2.96136e-66 2.52511e-66 2.07651e-66 1.64343e-66 1.24953e-66 9.11318e-67 6.36808e-67 4.25976e-67 2.7262e-67 1.66881e-67 9.77058e-68 5.4725e-68 2.93337e-68 1.50555e-68 7.40366e-69 3.49097e-69 1.57958e-69 6.86436e-70 2.86752e-70 1.15253e-70 4.46091e-71 1.66424e-71 5.98982e-72 2.0816e-72 6.99102e-73 2.27093e-73 7.1407e-74 2.17518e-74 6.42386e-75 1.84063e-75 5.12051e-76 1.38401e-76 3.63688e-77 9.2974e-78 2.31369e-78 5.60812e-79 1.32479e-79 3.05164e-80 6.85815e-81 1.50449e-81 3.22327e-82 6.74738e-83 1.38071e-83 2.76307e-84 5.40991e-85 1.03675e-85 1.94543e-86 3.5759e-87 6.44082e-88 1.13721e-88 1.96895e-89 3.34402e-90 5.57294e-91 9.11616e-92 1.46339e-92 2.25522e-93 0 