# vtk DataFile Version 3.0
Gray-Scott Simulation Output
ASCII
DATASET STRUCTURED_POINTS
DIMENSIONS 256 256 1
SPACING 1.0 1.0 1.0
ORIGIN 0 0 0
POINT_DATA 65536
SCALARS u double
LOOKUP_TABLE default
0 0 0 0 0 0 0 0 0 0 0 0 0 0 0 0 0 0 0 0 0 0 0 0 0 0 0 0 0 0 0 0 0 0 0 0 0 0 0 0 0 0 0 0 0 0 0 0 0 0 0 0 0 0 0 0 0 0 0 0 0 0 0 0 0 0 0 0 0 0 0 0 0 0 0 0 0 0 0 0 0 0 0 0 0 0 0 0 0 0 0 0 0 0 0 0 0 0 0 0 0 0 0 0 0 0 0 0 0 0 0 0 0 0 0 0 0 0 0 0 0 0 0 0 0 0 0 0 0 0 0 0 0 0 0 0 0 0 0 0 0 0 0 0 0 0 0 0 0 0 0 0 0 0 0 0 0 0 0 0 0 0 0 0 0 0 0 0 0 0 0 0 0 0 0 0 0 0 0 0 0 0 0 0 0 0 0 0 0 0 0 0 0 0 0 0 0 0 0 0 0 0 0 0 0 0 0 0 0 0 0 0 0 0 0 0 0 0 0 0 0 0 0 0 0 0 0 0 0 0 0 0 0 0 0 0 0 0 0 0 0 0 0 0 0 0 0 0 0 0 0 0 0 0 0 0 
0 9.49156e-75 3.15956e-74 9.51591e-74 2.81706e-73 8.26581e-73 2.40596e-72 6.94744e-72 1.99011e-71 5.65489e-71 1.59383e-70 4.45564e-70 1.23539e-69 3.39701e-69 9.26339e-69 2.50494e-68 6.71667e-68 1.78573e-67 4.70715e-67 1.23014e-66 3.187e-66 8.18489e-66 2.08363e-65 5.2575e-65 1.31481e-64 3.25868e-64 8.00372e-64 1.94798e-63 4.69774e-63 1.12248e-62 2.65721e-62 6.23162e-62 1.44768e-61 3.33131e-61 7.59265e-61 1.71388e-60 3.83127e-60 8.48108e-60 1.85898e-59 4.0344e-59 8.66829e-59 1.84376e-58 3.88206e-58 8.09041e-58 1.66877e-57 3.40649e-57 6.88125e-57 1.37545e-56 2.7202e-56 5.32237e-56 1.0302e-55 1.97248e-55 3.73546e-55 6.99652e-55 1.29595e-54 2.37373e-54 4.29904e-54 7.69793e-54 1.36271e-53 2.38466e-53 4.12482e-53 7.05189e-53 1.1915e-52 1.98946e-52 3.28243e-52 5.3511e-52 8.61877e-52 1.37142e-51 2.1557e-51 3.34712e-51 5.13323e-51 7.77534e-51 1.16314e-50 1.71834e-50 2.50684e-50 3.61133e-50 5.13708e-50 7.21537e-50 1.00066e-49 1.37023e-49 1.85257e-49 2.47307e-49 3.25973e-49 4.24252e-49 5.45231e-49 6.91951e-49 8.6724e-49 1.07352e-48 1.31261e-48 1.58551e-48 1.89224e-48 2.23169e-48 2.60153e-48 2.99817e-48 3.41689e-48 3.85192e-48 4.29668e-48 4.74407e-48 5.1868e-48 5.61771e-48 6.03012e-48 6.41812e-48 6.77679e-48 7.10238e-48 7.39238e-48 7.64549e-48 7.86158e-48 8.04151e-48 8.18696e-48 8.30024e-48 8.38405e-48 8.44133e-48 8.4751e-48 8.48829e-48 8.48369e-48 8.46387e-48 8.43118e-48 8.38776e-48 8.33551e-48 8.27617e-48 8.21134e-48 8.14251e-48 8.07108e-48 7.9984e-48 7.92579e-48 7.85452e-48 7.78584e-48 7.72095e-48 7.66099e-48 7.607e-48 7.55991e-48 7.52049e-48 7.48932e-48 7.46674e-48 7.45283e-48 7.44737e-48 7.44981e-48 7.45931e-48 7.47469e-48 7.49453e-48 7.51719e-48 7.54088e-48 7.56377e-48 7.58408e-48 7.60019e-48 7.61076e-48 7.61478e-48 7.61166e-48 7.60125e-48 7.58384e-48 7.56012e-48 7.53114e-48 7.49817e-48 7.46262e-48 7.42591e-48 7.38938e-48 7.35416e-48 7.32114e-48 7.29089e-48 7.26372e-48 7.23961e-48 7.21835e-48 7.19957e-48 7.18282e-48 7.16768e-48 7.15383e-48 7.1411e-48 7.12955e-48 7.11945e-48 7.11135e-48 7.10596e-48 7.10421e-48 7.10713e-48 7.11582e-48 7.13136e-48 7.15475e-48 7.18686e-48 7.22832e-48 7.27952e-48 7.34051e-48 7.411e-48 7.49023e-48 7.57701e-48 7.66961e-48 7.76573e-48 7.86249e-48 7.95639e-48 8.04333e-48 8.11865e-48 8.17724e-48 8.21365e-48 8.22232e-48 8.19779e-48 8.13501e-48 8.0296e-48 7.87821e-48 7.67874e-48 7.4306e-48 7.13486e-48 6.79433e-48 6.41348e-48 5.99831e-48 5.55612e-48 5.09514e-48 4.62415e-48 4.15205e-48 3.68745e-48 3.23827e-48 2.81142e-48 2.41255e-48 2.04594e-48 1.71437e-48 1.41925e-48 1.16065e-48 9.37546e-49 7.47993e-49 5.89369e-49 4.58606e-49 3.524e-49 2.67402e-49 2.00364e-49 1.48249e-49 1.08315e-49 7.81459e-50 5.56744e-50 3.91694e-50 2.72139e-50 1.86725e-50 1.26532e-50 8.46841e-51 5.59796e-51 3.65516e-51 2.35752e-51 1.50212e-51 9.4554e-52 5.88042e-52 3.61344e-52 2.19405e-52 1.31649e-52 7.80661e-53 4.57526e-53 2.65039e-53 1.51767e-53 8.59119e-54 4.80805e-54 2.66047e-54 1.45565e-54 7.87581e-55 4.21404e-55 2.22977e-55 1.16642e-55 6.02354e-56 3.05161e-56 1.47606e-56 5.95153e-57 0 
0 3.15592e-74 1.05076e-73 3.16547e-73 9.37343e-73 2.7511e-72 8.00993e-72 2.3136e-71 6.62927e-71 1.88426e-70 5.31238e-70 1.48555e-69 4.12019e-69 1.13331e-68 3.09145e-68 8.36244e-68 2.24303e-67 5.96549e-67 1.57304e-66 4.11235e-66 1.06579e-65 2.73818e-65 6.97319e-65 1.76017e-64 4.40357e-64 1.09183e-63 2.68272e-63 6.53194e-63 1.57589e-62 3.767e-62 8.92124e-62 2.09307e-61 4.86457e-61 1.11989e-60 2.55356e-60 5.76668e-60 1.28969e-59 2.85623e-59 6.26348e-59 1.35995e-58 2.92335e-58 6.22099e-58 1.31046e-57 2.73237e-57 5.63866e-57 1.15159e-56 2.32739e-56 4.65434e-56 9.20934e-56 1.80279e-55 3.4912e-55 6.68774e-55 1.26714e-54 2.37451e-54 4.4004e-54 8.06386e-54 1.46114e-53 2.61758e-53 4.63589e-53 8.11626e-53 1.40453e-52 2.4023e-52 4.06074e-52 6.78316e-52 1.11963e-51 1.82598e-51 2.94218e-51 4.68336e-51 7.36433e-51 1.14384e-50 1.75479e-50 2.65881e-50 3.97856e-50 5.87918e-50 8.57905e-50 1.23616e-49 1.75875e-49 2.47069e-49 3.42692e-49 4.69305e-49 6.34554e-49 8.47122e-49 1.11659e-48 1.45318e-48 1.86744e-48 2.3697e-48 2.96955e-48 3.67518e-48 4.49263e-48 5.42516e-48 6.47261e-48 7.63091e-48 8.89179e-48 1.02428e-47 1.16673e-47 1.31455e-47 1.46546e-47 1.61703e-47 1.76674e-47 1.91217e-47 2.05103e-47 2.18134e-47 2.30145e-47 2.41013e-47 2.50655e-47 2.59034e-47 2.6615e-47 2.72039e-47 2.76761e-47 2.80401e-47 2.83054e-47 2.84824e-47 2.85814e-47 2.86126e-47 2.85855e-47 2.85088e-47 2.83904e-47 2.82374e-47 2.8056e-47 2.78521e-47 2.76307e-47 2.73968e-47 2.71549e-47 2.69095e-47 2.66647e-47 2.64249e-47 2.6194e-47 2.5976e-47 2.57748e-47 2.55936e-47 2.54358e-47 2.53037e-47 2.51993e-47 2.51238e-47 2.50774e-47 2.50593e-47 2.50678e-47 2.51e-47 2.5152e-47 2.52189e-47 2.52953e-47 2.53752e-47 2.54524e-47 2.55209e-47 2.55753e-47 2.56111e-47 2.56249e-47 2.56147e-47 2.55801e-47 2.55219e-47 2.54426e-47 2.53456e-47 2.52352e-47 2.51161e-47 2.49932e-47 2.48709e-47 2.4753e-47 2.46426e-47 2.45414e-47 2.44505e-47 2.43699e-47 2.42989e-47 2.42361e-47 2.41801e-47 2.41294e-47 2.4083e-47 2.40404e-47 2.40016e-47 2.39677e-47 2.39404e-47 2.39222e-47 2.39163e-47 2.3926e-47 2.39553e-47 2.40076e-47 2.40865e-47 2.41949e-47 2.43349e-47 2.45081e-47 2.47146e-47 2.49535e-47 2.52226e-47 2.55178e-47 2.58334e-47 2.6162e-47 2.64938e-47 2.68172e-47 2.71184e-47 2.73817e-47 2.75898e-47 2.77243e-47 2.77662e-47 2.76967e-47 2.74986e-47 2.71566e-47 2.6659e-47 2.59983e-47 2.51721e-47 2.41836e-47 2.30419e-47 2.17619e-47 2.03637e-47 1.88719e-47 1.73144e-47 1.5721e-47 1.41221e-47 1.25469e-47 1.10226e-47 9.57299e-48 8.21743e-48 6.97067e-48 5.84247e-48 4.83777e-48 3.95704e-48 3.19692e-48 2.5509e-48 2.01014e-48 1.56426e-48 1.20205e-48 9.12133e-49 6.83448e-49 5.05664e-49 3.69427e-49 2.66506e-49 1.89849e-49 1.33549e-49 9.27713e-50 6.36426e-50 4.3118e-50 2.88513e-50 1.90673e-50 1.24467e-50 8.02579e-51 5.11225e-51 3.21704e-51 2.00009e-51 1.22862e-51 7.45757e-52 4.47317e-52 2.65158e-52 1.55345e-52 8.99555e-53 5.14906e-53 2.91362e-53 1.62995e-53 9.01549e-54 4.93071e-54 2.66666e-54 1.42623e-54 7.54345e-55 3.94441e-55 2.0361e-55 1.03111e-55 4.98567e-56 2.00972e-56 0 
0 9.49181e-74 3.16109e-73 9.52579e-73 2.82164e-72 8.28421e-72 2.41279e-71 6.97152e-71 1.99828e-70 5.6818e-70 1.60248e-69 4.48284e-69 1.24379e-68 3.42251e-68 9.33961e-68 2.52739e-67 6.7819e-67 1.80444e-66 4.76012e-66 1.24496e-65 3.22795e-65 8.29677e-65 2.11385e-64 5.33822e-64 1.33613e-63 3.31439e-63 8.14768e-63 1.98478e-62 4.79082e-62 1.14577e-61 2.71487e-61 6.37282e-61 1.4819e-60 3.41333e-60 7.78721e-60 1.75953e-59 3.93727e-59 8.72454e-59 1.91429e-58 4.15873e-58 8.94471e-58 1.90455e-57 4.01429e-57 8.37486e-57 1.72929e-56 3.53382e-56 7.14616e-56 1.42994e-55 2.83105e-55 5.54527e-55 1.07451e-54 2.05955e-54 3.90458e-54 7.32117e-54 1.35754e-53 2.48919e-53 4.51292e-53 8.08938e-53 1.43349e-52 2.51108e-52 4.34787e-52 7.44056e-52 1.25839e-51 2.10313e-51 3.47317e-51 5.66711e-51 9.13565e-51 1.45488e-50 2.28872e-50 3.55636e-50 5.45805e-50 8.27296e-50 1.23837e-49 1.83054e-49 2.67196e-49 3.85105e-49 5.48037e-49 7.70034e-49 1.06823e-48 1.4631e-48 1.97845e-48 2.64133e-48 3.48154e-48 4.53089e-48 5.82201e-48 7.38691e-48 9.25514e-48 1.14517e-47 1.39949e-47 1.68941e-47 2.01481e-47 2.37431e-47 2.76524e-47 3.1836e-47 3.62416e-47 4.0806e-47 4.54578e-47 5.01207e-47 5.47165e-47 5.91695e-47 6.34096e-47 6.73758e-47 7.10182e-47 7.43e-47 7.71979e-47 7.97019e-47 8.18142e-47 8.35476e-47 8.49234e-47 8.59688e-47 8.67151e-47 8.71952e-47 8.74421e-47 8.74875e-47 8.73609e-47 8.7089e-47 8.66959e-47 8.62028e-47 8.56285e-47 8.499e-47 8.43025e-47 8.35802e-47 8.28364e-47 8.2084e-47 8.13356e-47 8.06035e-47 7.98998e-47 7.92362e-47 7.86239e-47 7.80734e-47 7.75938e-47 7.71928e-47 7.68762e-47 7.66475e-47 7.65074e-47 7.64535e-47 7.64805e-47 7.65796e-47 7.67388e-47 7.69437e-47 7.71773e-47 7.74216e-47 7.76576e-47 7.78673e-47 7.80341e-47 7.81443e-47 7.81874e-47 7.81576e-47 7.80532e-47 7.78773e-47 7.76369e-47 7.73428e-47 7.7008e-47 7.6647e-47 7.62742e-47 7.59033e-47 7.5546e-47 7.52111e-47 7.49048e-47 7.46296e-47 7.43857e-47 7.41707e-47 7.39807e-47 7.38111e-47 7.36576e-47 7.35168e-47 7.33871e-47 7.32691e-47 7.31657e-47 7.30824e-47 7.30268e-47 7.30085e-47 7.30382e-47 7.31274e-47 7.32873e-47 7.35287e-47 7.38606e-47 7.42901e-47 7.48216e-47 7.54566e-47 7.61924e-47 7.70224e-47 7.7935e-47 7.89135e-47 7.99351e-47 8.09709e-47 8.19856e-47 8.29372e-47 8.37779e-47 8.44544e-47 8.49099e-47 8.50855e-47 8.49231e-47 8.43681e-47 8.33728e-47 8.18994e-47 7.99234e-47 7.74358e-47 7.44448e-47 7.09774e-47 6.7078e-47 6.28079e-47 5.82422e-47 5.34666e-47 4.8573e-47 4.36555e-47 3.8805e-47 3.41062e-47 2.9633e-47 2.54466e-47 2.15932e-47 1.81038e-47 1.49946e-47 1.22676e-47 9.91298e-48 7.91102e-48 6.23473e-48 4.85218e-48 3.72883e-48 2.82953e-48 2.12009e-48 1.56852e-48 1.14583e-48 8.2652e-49 5.887e-49 4.1405e-49 2.8757e-49 1.97235e-49 1.33595e-49 8.93678e-50 5.90447e-50 3.85313e-50 2.48373e-50 1.58153e-50 9.94864e-51 6.18289e-51 3.79656e-51 2.30351e-51 1.3811e-51 8.18324e-52 4.79208e-52 2.77368e-52 1.58692e-52 8.97538e-53 5.01864e-53 2.77452e-53 1.51668e-53 8.19852e-54 4.38267e-54 2.31685e-54 1.21085e-54 6.24724e-55 3.16215e-55 1.52833e-55 6.15872e-56 0 
0 2.80588e-73 9.34698e-73 2.81757e-72 8.34875e-72 2.45201e-71 7.14405e-71 2.06495e-70 5.92105e-70 1.68419e-69 4.75187e-69 1.32983e-68 3.69113e-68 1.0161e-67 2.77395e-67 7.50975e-67 2.016e-66 5.36625e-66 1.41625e-65 3.70573e-65 9.61271e-65 2.4719e-64 6.3009e-64 1.59197e-63 3.98658e-63 9.89402e-63 2.43346e-62 5.93096e-62 1.43235e-61 3.42743e-61 8.12554e-61 1.90841e-60 4.44016e-60 1.0233e-59 2.33588e-59 5.28099e-59 1.1824e-58 2.62159e-58 5.75556e-58 1.25112e-57 2.69256e-57 5.73662e-57 1.20986e-56 2.52565e-56 5.21834e-56 1.06704e-55 2.15913e-55 4.32312e-55 8.56442e-55 1.6786e-54 3.25466e-54 6.24226e-54 1.18418e-53 2.22174e-53 4.12228e-53 7.56327e-53 1.37207e-52 2.46091e-52 4.36352e-52 7.64821e-52 1.32504e-51 2.26885e-51 3.83935e-51 6.42019e-51 1.06082e-50 1.73182e-50 2.79317e-50 4.45035e-50 7.00424e-50 1.08885e-49 1.67179e-49 2.53499e-49 3.79599e-49 5.61311e-49 8.19575e-49 1.18157e-48 1.68189e-48 2.36369e-48 3.27962e-48 4.49251e-48 6.07551e-48 8.11156e-48 1.0692e-47 1.39141e-47 1.78775e-47 2.26797e-47 2.84104e-47 3.51448e-47 4.29371e-47 5.18139e-47 6.17683e-47 7.27555e-47 8.46901e-47 9.74459e-47 1.10859e-46 1.24733e-46 1.38847e-46 1.52964e-46 1.66846e-46 1.80259e-46 1.92992e-46 2.04861e-46 2.15717e-46 2.25453e-46 2.34004e-46 2.41345e-46 2.4749e-46 2.52484e-46 2.56399e-46 2.59323e-46 2.61356e-46 2.62601e-46 2.63161e-46 2.63134e-46 2.62611e-46 2.61672e-46 2.60388e-46 2.58823e-46 2.57032e-46 2.55063e-46 2.5296e-46 2.50764e-46 2.48513e-46 2.46244e-46 2.43993e-46 2.41795e-46 2.39685e-46 2.37698e-46 2.35866e-46 2.34221e-46 2.32788e-46 2.31591e-46 2.30647e-46 2.29966e-46 2.2955e-46 2.29392e-46 2.29477e-46 2.29776e-46 2.30257e-46 2.30873e-46 2.31576e-46 2.32311e-46 2.33021e-46 2.33652e-46 2.34155e-46 2.34488e-46 2.34621e-46 2.34535e-46 2.34226e-46 2.33703e-46 2.32987e-46 2.32111e-46 2.31112e-46 2.30036e-46 2.28924e-46 2.27818e-46 2.26753e-46 2.25756e-46 2.24843e-46 2.24025e-46 2.23299e-46 2.22659e-46 2.22094e-46 2.21589e-46 2.21132e-46 2.20712e-46 2.20324e-46 2.19971e-46 2.19661e-46 2.19411e-46 2.19244e-46 2.19189e-46 2.19277e-46 2.19545e-46 2.20026e-46 2.20752e-46 2.21752e-46 2.23048e-46 2.24654e-46 2.26575e-46 2.28805e-46 2.31325e-46 2.34103e-46 2.37089e-46 2.40217e-46 2.43401e-46 2.46537e-46 2.49499e-46 2.52143e-46 2.54308e-46 2.55822e-46 2.56505e-46 2.56178e-46 2.54675e-46 2.51845e-46 2.4757e-46 2.41771e-46 2.34415e-46 2.25523e-46 2.15171e-46 2.0349e-46 1.90664e-46 1.76919e-46 1.62513e-46 1.47725e-46 1.32843e-46 1.18144e-46 1.03888e-46 9.03023e-47 7.75757e-47 6.58521e-47 5.52285e-47 4.57562e-47 3.74438e-47 3.0263e-47 2.41552e-47 1.90393e-47 1.48186e-47 1.13885e-47 8.64201e-48 6.4751e-48 4.79026e-48 3.49908e-48 2.52369e-48 1.79726e-48 1.26385e-48 8.77603e-49 6.0178e-49 4.07504e-49 2.72523e-49 1.79999e-49 1.17426e-49 7.56663e-50 4.81635e-50 3.02857e-50 1.88144e-50 1.1548e-50 7.0036e-51 4.19722e-51 2.48578e-51 1.45498e-51 8.41745e-52 4.81354e-52 2.72111e-52 1.52075e-52 8.40304e-53 4.59109e-53 2.48044e-53 1.32526e-53 7.0021e-54 3.65753e-54 1.88606e-54 9.54174e-55 4.6096e-55 1.85692e-55 0 
0 8.22096e-73 2.73932e-72 8.26018e-72 2.44843e-71 7.19353e-71 2.09663e-70 6.06245e-70 1.73901e-69 4.94837e-69 1.39671e-68 3.9103e-68 1.08581e-67 2.99027e-67 8.16691e-67 2.21193e-66 5.94058e-66 1.58199e-65 4.17707e-65 1.09347e-64 2.83782e-64 7.30094e-64 1.86193e-63 4.70664e-63 1.17922e-62 2.92814e-62 7.20558e-62 1.75712e-61 4.24579e-61 1.01652e-60 2.41123e-60 5.66633e-60 1.31909e-59 3.04178e-59 6.94752e-59 1.57163e-58 3.52093e-58 7.81125e-58 1.71596e-57 3.73237e-57 8.03751e-57 1.7135e-56 3.61607e-56 7.55352e-56 1.56165e-55 3.19529e-55 6.46978e-55 1.29625e-54 2.56963e-54 5.03965e-54 9.77783e-54 1.87655e-53 3.56217e-53 6.68763e-53 1.24164e-52 2.27952e-52 4.13794e-52 7.42638e-52 1.31761e-51 2.31087e-51 4.00594e-51 6.8634e-51 1.1621e-50 1.94437e-50 3.21448e-50 5.25055e-50 8.47279e-50 1.35064e-49 2.12675e-49 3.30765e-49 5.0807e-49 7.70719e-49 1.15455e-48 1.70783e-48 2.49442e-48 3.59722e-48 5.12174e-48 7.19957e-48 9.99124e-48 1.36883e-47 1.85134e-47 2.47192e-47 3.25832e-47 4.24009e-47 5.44743e-47 6.90979e-47 8.65412e-47 1.07029e-46 1.3072e-46 1.57689e-46 1.87905e-46 2.21223e-46 2.57373e-46 2.95959e-46 3.36473e-46 3.78308e-46 4.20783e-46 4.63175e-46 5.04754e-46 5.44818e-46 5.82725e-46 6.17926e-46 6.49984e-46 6.7859e-46 7.03563e-46 7.24851e-46 7.42516e-46 7.56715e-46 7.67684e-46 7.75706e-46 7.81097e-46 7.84182e-46 7.85278e-46 7.84684e-46 7.82674e-46 7.7949e-46 7.75344e-46 7.70419e-46 7.64874e-46 7.5885e-46 7.5247e-46 7.45847e-46 7.3909e-46 7.32303e-46 7.25586e-46 7.19043e-46 7.12773e-46 7.06874e-46 7.01442e-46 6.96565e-46 6.92323e-46 6.88781e-46 6.8599e-46 6.8398e-46 6.82757e-46 6.823e-46 6.8256e-46 6.8346e-46 6.84895e-46 6.86735e-46 6.88832e-46 6.91022e-46 6.9314e-46 6.95024e-46 6.96527e-46 6.97527e-46 6.97932e-46 6.97688e-46 6.96782e-46 6.9524e-46 6.93127e-46 6.90537e-46 6.87586e-46 6.84403e-46 6.81118e-46 6.7785e-46 6.74704e-46 6.71758e-46 6.69065e-46 6.66649e-46 6.64509e-46 6.62623e-46 6.60956e-46 6.59466e-46 6.58116e-46 6.56874e-46 6.55727e-46 6.54679e-46 6.53759e-46 6.53015e-46 6.52516e-46 6.5235e-46 6.52613e-46 6.53409e-46 6.54843e-46 6.57011e-46 6.6e-46 6.63877e-46 6.68689e-46 6.74453e-46 6.81157e-46 6.88747e-46 6.97133e-46 7.06173e-46 7.15675e-46 7.25388e-46 7.35003e-46 7.44148e-46 7.52394e-46 7.5926e-46 7.64226e-46 7.66749e-46 7.66287e-46 7.62323e-46 7.54401e-46 7.42147e-46 7.25308e-46 7.03771e-46 6.77581e-46 6.46955e-46 6.12276e-46 5.74085e-46 5.33054e-46 4.89962e-46 4.4565e-46 4.00982e-46 3.56805e-46 3.13905e-46 2.72979e-46 2.34604e-46 1.99224e-46 1.67139e-46 1.38513e-46 1.13378e-46 9.16537e-47 7.31682e-47 5.76789e-47 4.48965e-47 3.45059e-47 2.61848e-47 1.96188e-47 1.45131e-47 1.06003e-47 7.64446e-48 5.44324e-48 3.82703e-48 2.65689e-48 1.82142e-48 1.23308e-48 8.24396e-49 5.44339e-49 3.54989e-49 2.28666e-49 1.45497e-49 9.14537e-50 5.67905e-50 3.48423e-50 2.11216e-50 1.26522e-50 7.48969e-51 4.38176e-51 2.5337e-51 1.44817e-51 8.18235e-52 4.57049e-52 2.52413e-52 1.37834e-52 7.44276e-53 3.97437e-53 2.09874e-53 1.09567e-53 5.64688e-54 2.85531e-54 1.37875e-54 5.55224e-55 0 
0 2.38938e-72 7.9639e-72 2.40225e-71 7.12309e-71 2.09354e-70 6.10412e-70 1.76568e-69 5.06681e-69 1.44234e-68 4.07272e-68 1.14069e-67 3.16878e-67 8.73039e-67 2.38545e-66 6.46363e-66 1.73672e-65 4.62703e-65 1.22229e-64 3.20122e-64 8.31195e-64 2.13949e-63 5.459e-63 1.38065e-62 3.46093e-62 8.59836e-62 2.11702e-61 5.16526e-61 1.24879e-60 2.99149e-60 7.09999e-60 1.66944e-59 3.88863e-59 8.97233e-59 2.05053e-58 4.6414e-58 1.04045e-57 2.30969e-57 5.07705e-57 1.105e-56 2.38109e-56 5.07944e-56 1.07263e-55 2.24205e-55 4.63837e-55 9.49678e-55 1.92417e-54 3.85771e-54 7.65245e-54 1.50183e-53 2.91575e-53 5.5996e-53 1.06366e-52 1.99823e-52 3.71239e-52 6.82006e-52 1.23883e-51 2.22476e-51 3.94975e-51 6.93155e-51 1.20235e-50 2.06124e-50 3.49213e-50 5.84628e-50 9.67072e-50 1.58049e-49 2.55179e-49 4.0699e-49 6.4117e-49 9.9766e-49 1.53313e-48 2.32668e-48 3.48677e-48 5.15959e-48 7.53852e-48 1.08746e-47 1.54875e-47 2.17757e-47 3.02251e-47 4.14155e-47 5.60208e-47 7.4804e-47 9.86036e-47 1.2831e-46 1.64832e-46 2.09054e-46 2.61779e-46 3.23673e-46 3.95199e-46 4.76559e-46 5.67636e-46 6.67959e-46 7.76679e-46 8.92571e-46 1.01407e-45 1.1393e-45 1.26619e-45 1.39254e-45 1.51615e-45 1.63489e-45 1.74685e-45 1.8504e-45 1.94426e-45 2.02756e-45 2.09981e-45 2.16091e-45 2.21111e-45 2.25095e-45 2.2812e-45 2.30276e-45 2.31662e-45 2.32378e-45 2.32523e-45 2.32187e-45 2.31452e-45 2.30391e-45 2.29065e-45 2.27527e-45 2.25823e-45 2.23993e-45 2.22071e-45 2.20088e-45 2.18075e-45 2.16059e-45 2.14071e-45 2.12138e-45 2.10289e-45 2.08551e-45 2.06953e-45 2.05519e-45 2.04273e-45 2.03233e-45 2.02415e-45 2.01826e-45 2.01469e-45 2.01338e-45 2.01418e-45 2.01686e-45 2.02111e-45 2.02656e-45 2.03276e-45 2.03924e-45 2.04551e-45 2.05109e-45 2.05555e-45 2.05852e-45 2.05975e-45 2.05906e-45 2.05643e-45 2.05192e-45 2.04573e-45 2.03814e-45 2.02949e-45 2.02015e-45 2.01052e-45 2.00094e-45 1.99172e-45 1.98309e-45 1.97521e-45 1.96814e-45 1.96188e-45 1.95636e-45 1.95148e-45 1.94712e-45 1.94317e-45 1.93953e-45 1.93616e-45 1.93307e-45 1.93036e-45 1.92816e-45 1.92669e-45 1.92619e-45 1.92697e-45 1.92932e-45 1.93356e-45 1.93999e-45 1.94885e-45 1.96037e-45 1.97468e-45 1.99184e-45 2.01184e-45 2.03454e-45 2.05967e-45 2.08684e-45 2.1155e-45 2.14491e-45 2.17418e-45 2.20221e-45 2.22773e-45 2.24932e-45 2.26542e-45 2.2744e-45 2.27461e-45 2.26451e-45 2.24267e-45 2.20795e-45 2.15954e-45 2.09706e-45 2.02059e-45 1.93073e-45 1.8286e-45 1.71578e-45 1.59425e-45 1.46634e-45 1.33456e-45 1.2015e-45 1.06972e-45 9.4158e-46 8.19201e-46 7.04338e-46 5.98345e-46 5.02153e-46 4.16271e-46 3.40819e-46 2.75574e-46 2.20031e-46 1.73474e-46 1.35042e-46 1.03794e-46 7.87653e-47 5.90131e-47 4.36529e-47 3.18808e-47 2.29882e-47 1.63662e-47 1.15046e-47 7.98528e-48 5.47294e-48 3.70411e-48 2.47571e-48 1.63416e-48 1.06535e-48 6.85993e-49 4.3632e-49 2.74143e-49 1.70164e-49 1.04354e-49 6.3231e-50 3.78589e-50 2.24003e-50 1.30985e-50 7.57024e-51 4.32464e-51 2.44218e-51 1.36342e-51 7.52563e-52 4.10724e-52 2.21659e-52 1.18298e-52 6.24341e-53 3.2576e-53 1.67797e-53 8.48e-54 4.0928e-54 1.6476e-54 0 
0 6.8893e-72 2.29688e-71 6.93074e-71 2.05583e-70 6.04451e-70 1.76306e-69 5.10182e-69 1.4646e-68 4.17085e-68 1.17821e-67 3.30131e-67 9.17477e-67 2.52887e-66 6.91282e-66 1.87395e-65 5.03744e-65 1.34273e-64 3.54867e-64 9.29863e-64 2.41558e-63 6.22083e-63 1.58808e-62 4.01854e-62 1.00788e-61 2.50533e-61 6.17179e-61 1.50667e-60 3.64469e-60 8.7359e-60 2.07458e-59 4.88088e-59 1.13758e-58 2.62636e-58 6.00594e-58 1.36029e-57 3.05125e-57 6.77772e-57 1.4908e-56 3.24677e-56 7.00079e-56 1.49442e-55 3.15788e-55 6.6051e-55 1.36739e-54 2.80153e-54 5.68011e-54 1.13956e-53 2.26207e-53 4.44245e-53 8.63078e-53 1.65864e-52 3.15277e-52 5.92697e-52 1.10188e-51 2.02564e-51 3.68191e-51 6.61658e-51 1.17545e-50 2.06417e-50 3.58278e-50 6.14597e-50 1.04188e-49 1.74529e-49 2.88869e-49 4.72368e-49 7.63084e-49 1.2177e-48 1.91934e-48 2.98794e-48 4.59378e-48 6.97454e-48 1.04563e-47 1.54787e-47 2.26233e-47 3.26454e-47 4.6506e-47 6.54037e-47 9.08002e-47 1.24437e-46 1.6834e-46 2.24799e-46 2.96328e-46 3.85594e-46 4.95311e-46 6.2811e-46 7.86377e-46 9.72065e-46 1.18651e-45 1.43025e-45 1.70286e-45 2.00283e-45 2.32751e-45 2.67312e-45 3.03487e-45 3.40706e-45 3.78339e-45 4.15722e-45 4.52191e-45 4.87114e-45 5.19921e-45 5.50134e-45 5.77385e-45 6.01423e-45 6.22122e-45 6.39473e-45 6.53571e-45 6.64595e-45 6.7279e-45 6.78444e-45 6.81864e-45 6.8336e-45 6.8323e-45 6.81747e-45 6.79157e-45 6.75671e-45 6.71471e-45 6.66708e-45 6.61511e-45 6.55989e-45 6.50238e-45 6.44344e-45 6.38388e-45 6.3245e-45 6.26608e-45 6.20941e-45 6.15529e-45 6.10451e-45 6.05785e-45 6.01603e-45 5.9797e-45 5.94943e-45 5.92562e-45 5.90853e-45 5.8982e-45 5.89445e-45 5.89687e-45 5.90479e-45 5.91731e-45 5.93332e-45 5.95152e-45 5.97054e-45 5.98894e-45 6.00533e-45 6.01845e-45 6.02724e-45 6.03091e-45 6.029e-45 6.02139e-45 6.00833e-45 5.99035e-45 5.96828e-45 5.94311e-45 5.91596e-45 5.88794e-45 5.86008e-45 5.83328e-45 5.8082e-45 5.7853e-45 5.76477e-45 5.7466e-45 5.73059e-45 5.71644e-45 5.70379e-45 5.6923e-45 5.6817e-45 5.67188e-45 5.66288e-45 5.65495e-45 5.64851e-45 5.64419e-45 5.64273e-45 5.64499e-45 5.65189e-45 5.66435e-45 5.68323e-45 5.70933e-45 5.74327e-45 5.78551e-45 5.83626e-45 5.8955e-45 5.96286e-45 6.03763e-45 6.1187e-45 6.2045e-45 6.29293e-45 6.38138e-45 6.46667e-45 6.54507e-45 6.61237e-45 6.66396e-45 6.69497e-45 6.70051e-45 6.67583e-45 6.61666e-45 6.51947e-45 6.38172e-45 6.20211e-45 5.98076e-45 5.71931e-45 5.42095e-45 5.09026e-45 4.73312e-45 4.35633e-45 3.96738e-45 3.57399e-45 3.18377e-45 2.80386e-45 2.44061e-45 2.09931e-45 1.78409e-45 1.49779e-45 1.242e-45 1.01714e-45 8.22601e-46 6.56917e-46 5.17987e-46 4.03268e-46 3.0997e-46 2.35227e-46 1.76234e-46 1.30355e-46 9.5193e-47 6.86317e-47 4.88538e-47 3.43351e-47 2.38266e-47 1.63261e-47 1.10465e-47 7.38094e-48 4.8704e-48 3.17402e-48 2.04303e-48 1.29894e-48 8.15795e-49 5.06156e-49 3.10262e-49 1.8791e-49 1.12455e-49 6.65042e-50 3.88685e-50 2.24522e-50 1.28194e-50 7.23542e-51 4.03718e-51 2.22715e-51 1.21482e-51 6.55241e-52 3.49497e-52 1.84348e-52 9.61308e-53 4.94883e-53 2.49962e-53 1.20583e-53 4.85245e-54 0 
0 1.9705e-71 6.57151e-71 1.98362e-70 5.88608e-70 1.73127e-69 5.0517e-69 1.4624e-68 4.19986e-68 1.19652e-67 3.38141e-67 9.47869e-67 2.6354e-66 7.26727e-66 1.98745e-65 5.39014e-65 1.44963e-64 3.86582e-64 1.02219e-63 2.67979e-63 6.96503e-63 1.79462e-62 4.58379e-62 1.16052e-61 2.91223e-61 7.24306e-61 1.7853e-60 4.3608e-60 1.0555e-59 2.53139e-59 6.01504e-59 1.41602e-58 3.30231e-58 7.62883e-58 1.74565e-57 3.95625e-57 8.87988e-57 1.97376e-56 4.34426e-56 9.46749e-56 2.04278e-55 4.36354e-55 9.22691e-55 1.93125e-54 4.00081e-54 8.20263e-54 1.66424e-53 3.34119e-53 6.63701e-53 1.30435e-52 2.53586e-52 4.87677e-52 9.27634e-52 1.7451e-51 3.24656e-51 5.97241e-51 1.08632e-50 1.9535e-50 3.47277e-50 6.10246e-50 1.0599e-49 1.81933e-49 3.08613e-49 5.17285e-49 8.56689e-49 1.4017e-48 2.26565e-48 3.61741e-48 5.70475e-48 8.88534e-48 1.36672e-47 2.07596e-47 3.11362e-47 4.61095e-47 6.74167e-47 9.73134e-47 1.38671e-46 1.95069e-46 2.70871e-46 3.71279e-46 5.02332e-46 6.70859e-46 8.84345e-46 1.15072e-45 1.47803e-45 1.87407e-45 2.34585e-45 2.89906e-45 3.53753e-45 4.26265e-45 5.0729e-45 5.9635e-45 6.92628e-45 7.94967e-45 9.01905e-45 1.01172e-44 1.12252e-44 1.23231e-44 1.3391e-44 1.44102e-44 1.53639e-44 1.62382e-44 1.70225e-44 1.77098e-44 1.8297e-44 1.87844e-44 1.91753e-44 1.94756e-44 1.96933e-44 1.98372e-44 1.99169e-44 1.99418e-44 1.99209e-44 1.98625e-44 1.97737e-44 1.96608e-44 1.9529e-44 1.93827e-44 1.92253e-44 1.90599e-44 1.88891e-44 1.87151e-44 1.85402e-44 1.83665e-44 1.81962e-44 1.80313e-44 1.78742e-44 1.77269e-44 1.75918e-44 1.74707e-44 1.73657e-44 1.72782e-44 1.72095e-44 1.71603e-44 1.71306e-44 1.712e-44 1.71273e-44 1.71505e-44 1.71871e-44 1.72337e-44 1.72868e-44 1.73422e-44 1.73957e-44 1.74435e-44 1.74818e-44 1.75076e-44 1.75185e-44 1.75132e-44 1.74915e-44 1.74539e-44 1.74021e-44 1.73384e-44 1.72658e-44 1.71874e-44 1.71066e-44 1.70262e-44 1.69489e-44 1.68766e-44 1.68107e-44 1.67515e-44 1.66992e-44 1.66532e-44 1.66124e-44 1.6576e-44 1.65429e-44 1.65123e-44 1.64839e-44 1.64578e-44 1.64348e-44 1.64161e-44 1.64036e-44 1.63993e-44 1.64058e-44 1.64259e-44 1.64622e-44 1.65173e-44 1.65936e-44 1.66929e-44 1.68166e-44 1.69655e-44 1.71397e-44 1.73381e-44 1.7559e-44 1.77991e-44 1.80542e-44 1.83181e-44 1.85835e-44 1.88411e-44 1.908e-44 1.9288e-44 1.94516e-44 1.95562e-44 1.95872e-44 1.95306e-44 1.93734e-44 1.91048e-44 1.8717e-44 1.82055e-44 1.75704e-44 1.68161e-44 1.59515e-44 1.499e-44 1.39485e-44 1.28471e-44 1.17078e-44 1.05535e-44 9.40664e-45 8.28861e-45 7.21831e-45 6.21166e-45 5.28105e-45 4.43515e-45 3.67886e-45 3.01361e-45 2.43775e-45 1.94709e-45 1.53551e-45 1.19555e-45 9.19002e-46 6.97412e-46 5.22495e-46 3.8645e-46 2.8218e-46 2.03418e-46 1.44774e-46 1.0173e-46 7.05783e-47 4.83484e-47 3.27041e-47 2.1845e-47 1.44099e-47 9.38748e-48 6.04016e-48 3.83873e-48 2.40989e-48 1.49454e-48 9.15699e-49 5.54327e-49 3.31574e-49 1.95989e-49 1.14487e-49 6.60979e-50 3.77192e-50 2.12773e-50 1.18656e-50 6.54203e-51 3.56637e-51 1.92249e-51 1.02483e-51 5.40244e-52 2.81552e-52 1.44858e-52 7.31259e-53 3.52586e-53 1.41834e-53 0 
0 5.59071e-71 1.86502e-70 5.63159e-70 1.67172e-69 4.9189e-69 1.43586e-68 4.15831e-68 1.19471e-67 3.4051e-67 9.62707e-67 2.69981e-66 7.50975e-66 2.07179e-65 5.66856e-65 1.53809e-64 4.13853e-64 1.10419e-63 2.92113e-63 7.66195e-63 1.99244e-62 5.13647e-62 1.31265e-61 3.32515e-61 8.34885e-61 2.07762e-60 5.12394e-60 1.25231e-59 3.03291e-59 7.27813e-59 1.73047e-58 4.07625e-58 9.51223e-58 2.19886e-57 5.03471e-57 1.14178e-56 2.56444e-56 5.70385e-56 1.25626e-55 2.73964e-55 5.9153e-55 1.26443e-54 2.67556e-54 5.60403e-54 1.16176e-53 2.38358e-53 4.83953e-53 9.72297e-53 1.93278e-52 3.80114e-52 7.39536e-52 1.42324e-51 2.70916e-51 5.1002e-51 9.49512e-51 1.74797e-50 3.18163e-50 5.72541e-50 1.01851e-49 1.79098e-49 3.11273e-49 5.34658e-49 9.07524e-49 1.52212e-48 2.52237e-48 4.12955e-48 6.67869e-48 1.06694e-47 1.68349e-47 2.62345e-47 4.03728e-47 6.13522e-47 9.20586e-47 1.36384e-46 1.99481e-46 2.8804e-46 4.10577e-46 5.77709e-46 8.0238e-46 1.1e-45 1.48847e-45 1.98801e-45 2.62074e-45 3.41007e-45 4.37973e-45 5.55257e-45 6.94907e-45 8.58572e-45 1.04733e-44 1.26154e-44 1.50067e-44 1.76323e-44 2.0467e-44 2.34758e-44 2.66144e-44 2.98312e-44 3.30694e-44 3.62696e-44 3.9373e-44 4.23244e-44 4.50748e-44 4.75839e-44 4.98214e-44 5.17684e-44 5.34171e-44 5.47702e-44 5.58394e-44 5.6644e-44 5.72086e-44 5.7561e-44 5.77303e-44 5.77453e-44 5.76329e-44 5.74176e-44 5.71206e-44 5.67598e-44 5.63503e-44 5.5904e-44 5.54309e-44 5.49389e-44 5.44351e-44 5.39255e-44 5.34157e-44 5.29115e-44 5.24186e-44 5.19427e-44 5.14899e-44 5.10662e-44 5.06778e-44 5.03303e-44 5.00291e-44 4.97784e-44 4.95817e-44 4.9441e-44 4.93565e-44 4.93269e-44 4.93486e-44 4.94162e-44 4.9522e-44 4.96568e-44 4.98101e-44 4.99701e-44 5.01249e-44 5.02631e-44 5.0374e-44 5.04488e-44 5.0481e-44 5.04667e-44 5.0405e-44 5.02977e-44 5.01497e-44 4.99675e-44 4.97597e-44 4.95354e-44 4.9304e-44 4.9074e-44 4.88529e-44 4.86462e-44 4.84577e-44 4.82888e-44 4.81394e-44 4.8008e-44 4.78917e-44 4.77876e-44 4.76929e-44 4.76053e-44 4.75239e-44 4.7449e-44 4.73828e-44 4.7329e-44 4.72927e-44 4.72803e-44 4.72992e-44 4.73572e-44 4.74623e-44 4.76219e-44 4.78429e-44 4.81312e-44 4.84909e-44 4.89247e-44 4.94328e-44 5.00132e-44 5.06607e-44 5.13668e-44 5.21193e-44 5.29014e-44 5.36917e-44 5.44639e-44 5.51866e-44 5.58242e-44 5.63368e-44 5.66824e-44 5.68176e-44 5.67004e-44 5.62921e-44 5.55599e-44 5.44796e-44 5.30372e-44 5.12312e-44 4.90732e-44 4.65884e-44 4.38148e-44 4.08016e-44 3.7607e-44 3.42953e-44 3.09336e-44 2.75885e-44 2.43228e-44 2.11926e-44 1.82454e-44 1.55183e-44 1.30373e-44 1.08175e-44 8.86376e-45 7.17161e-45 5.72917e-45 4.51873e-45 3.51861e-45 2.70485e-45 2.05268e-45 1.53781e-45 1.13733e-45 8.30376e-46 5.9852e-46 4.259e-46 2.99209e-46 2.07538e-46 1.42133e-46 9.61147e-47 6.41805e-47 4.23215e-47 2.75607e-47 1.77264e-47 1.12611e-47 7.06647e-48 4.38044e-48 2.68262e-48 1.62316e-48 9.70415e-49 5.73304e-49 3.34718e-49 1.93141e-49 1.10156e-49 6.21039e-50 3.46132e-50 1.90728e-50 1.03914e-50 5.59824e-51 2.9825e-51 1.57129e-51 8.18396e-52 4.20813e-52 2.12308e-52 1.02315e-52 4.11426e-53 0 