# vtk DataFile Version 3.0
Gray-Scott Simulation Output
ASCII
DATASET STRUCTURED_POINTS
DIMENSIONS 256 256 1
SPACING 1.0 1.0 1.0
ORIGIN 0 0 0
POINT_DATA 65536
SCALARS u double
LOOKUP_TABLE default
0 0 0 0 0 0 0 0 0 0 0 0 0 0 0 0 0 0 0 0 0 0 0 0 0 0 0 0 0 0 0 0 0 0 0 0 0 0 0 0 0 0 0 0 0 0 0 0 0 0 0 0 0 0 0 0 0 0 0 0 0 0 0 0 0 0 0 0 0 0 0 0 0 0 0 0 0 0 0 0 0 0 0 0 0 0 0 0 0 0 0 0 0 0 0 0 0 0 0 0 0 0 0 0 0 0 0 0 0 0 0 0 0 0 0 0 0 0 0 0 0 0 0 0 0 0 0 0 0 0 0 0 0 0 0 0 0 0 0 0 0 0 0 0 0 0 0 0 0 0 0 0 0 0 0 0 0 0 0 0 0 0 0 0 0 0 0 0 0 0 0 0 0 0 0 0 0 0 0 0 0 0 0 0 0 0 0 0 0 0 0 0 0 0 0 0 0 0 0 0 0 0 0 0 0 0 0 0 0 0 0 0 0 0 0 0 0 0 0 0 0 0 0 0 0 0 0 0 0 0 0 0 0 0 0 0 0 0 0 0 0 0 0 0 0 0 0 0 0 0 0 0 0 0 0 0 
0 5.42147e-120 4.33058e-119 3.37252e-118 2.59928e-117 1.98293e-116 1.49718e-115 1.11869e-114 8.27138e-114 6.05103e-113 4.37947e-112 3.13551e-111 2.22046e-110 1.55518e-109 1.07713e-108 7.37669e-108 4.99468e-107 3.34316e-106 2.21185e-105 1.44628e-104 9.34523e-104 5.96644e-103 3.76331e-102 2.34475e-101 1.4429e-100 8.76856e-100 5.26151e-99 3.11687e-98 1.8226e-97 1.05186e-96 5.99037e-96 3.36596e-95 1.86575e-94 1.02003e-93 5.49938e-93 2.92335e-92 1.53192e-91 7.91224e-91 4.02707e-90 2.0194e-89 9.97502e-89 4.85259e-88 2.32442e-87 1.09608e-86 5.08698e-86 2.32314e-85 1.04372e-84 4.612e-84 2.00393e-83 8.55964e-83 3.59335e-82 1.48218e-81 6.00538e-81 2.38948e-80 9.33388e-80 3.57844e-79 1.34607e-78 4.96651e-78 1.79683e-77 6.3723e-77 2.21449e-76 7.53861e-76 2.51304e-75 8.2005e-75 2.61852e-74 8.17866e-74 2.49777e-73 7.45579e-73 2.17436e-72 6.1928e-72 1.72178e-71 4.67105e-71 1.23598e-70 3.18838e-70 8.01492e-70 1.96245e-69 4.67812e-69 1.08521e-68 2.44864e-68 5.37166e-68 1.14515e-67 2.37136e-67 4.76782e-67 9.30362e-67 1.76125e-66 3.23348e-66 5.75514e-66 9.92793e-66 1.65952e-65 2.68757e-65 4.21665e-65 6.40944e-65 9.44036e-65 1.34774e-64 1.86584e-64 2.50659e-64 3.27044e-64 4.14876e-64 5.12386e-64 6.17047e-64 7.25852e-64 8.35654e-64 9.43491e-64 1.04683e-63 1.14368e-63 1.23261e-63 1.31262e-63 1.38306e-63 1.44349e-63 1.49365e-63 1.53339e-63 1.56277e-63 1.58202e-63 1.59168e-63 1.59255e-63 1.58572e-63 1.57255e-63 1.55451e-63 1.53303e-63 1.50936e-63 1.4844e-63 1.45862e-63 1.43216e-63 1.40492e-63 1.3768e-63 1.34795e-63 1.3188e-63 1.29015e-63 1.26295e-63 1.23814e-63 1.21643e-63 1.1982e-63 1.18352e-63 1.1723e-63 1.16453e-63 1.16047e-63 1.16072e-63 1.16613e-63 1.17755e-63 1.19552e-63 1.21993e-63 1.24977e-63 1.28306e-63 1.31697e-63 1.34815e-63 1.37313e-63 1.38879e-63 1.39288e-63 1.38436e-63 1.36363e-63 1.3325e-63 1.29406e-63 1.25215e-63 1.21091e-63 1.1741e-63 1.14457e-63 1.12396e-63 1.11253e-63 1.10929e-63 1.11241e-63 1.11962e-63 1.12863e-63 1.13752e-63 1.14484e-63 1.14968e-63 1.15153e-63 1.15022e-63 1.14577e-63 1.1384e-63 1.12851e-63 1.1168e-63 1.10423e-63 1.09207e-63 1.08178e-63 1.07488e-63 1.07268e-63 1.07607e-63 1.08537e-63 1.10028e-63 1.11993e-63 1.14321e-63 1.169e-63 1.19651e-63 1.22544e-63 1.25597e-63 1.28861e-63 1.32377e-63 1.36145e-63 1.40086e-63 1.44017e-63 1.47654e-63 1.50621e-63 1.52488e-63 1.52815e-63 1.5121e-63 1.47379e-63 1.41179e-63 1.32648e-63 1.22021e-63 1.0971e-63 9.62712e-64 8.23395e-64 6.85605e-64 5.55203e-64 4.36877e-64 3.3379e-64 2.47474e-64 1.77957e-64 1.2407e-64 8.38447e-65 5.49122e-65 3.48512e-65 2.14353e-65 1.27774e-65 7.38294e-66 4.13598e-66 2.24701e-66 1.18425e-66 6.05678e-67 3.00718e-67 1.44999e-67 6.79268e-68 3.09292e-68 1.36942e-68 5.89846e-69 2.47267e-69 1.00929e-69 4.01306e-70 1.55505e-70 5.87501e-71 2.16501e-71 7.78543e-72 2.73314e-72 9.37079e-73 3.13909e-73 1.02782e-73 3.29066e-74 1.03056e-74 3.15822e-75 9.47447e-76 2.78332e-76 8.0097e-77 2.25872e-77 6.24373e-78 1.6924e-78 4.49957e-79 1.17377e-79 3.00517e-80 7.5536e-81 1.86449e-81 4.5207e-82 1.07698e-82 2.52134e-83 5.7903e-84 1.2496e-84 0 
0 4.32698e-119 3.45552e-118 2.6904e-117 2.07306e-116 1.58111e-115 1.19351e-114 8.91588e-114 6.59069e-113 4.82039e-112 3.48799e-111 2.49668e-110 1.76767e-109 1.23777e-108 8.57103e-108 5.86855e-107 3.97267e-106 2.65851e-105 1.75851e-104 1.14961e-103 7.42671e-103 4.74058e-102 2.98949e-101 1.86224e-100 1.14575e-99 6.96138e-99 4.17631e-98 2.47354e-97 1.44613e-96 8.34437e-96 4.75127e-95 2.66923e-94 1.47928e-93 8.08602e-93 4.35874e-92 2.31662e-91 1.21377e-90 6.26802e-90 3.18971e-89 1.59925e-88 7.89842e-88 3.84181e-87 1.83997e-86 8.67515e-86 4.02565e-85 1.8382e-84 8.25745e-84 3.64834e-83 1.58502e-82 6.76949e-82 2.84152e-81 1.17193e-80 4.74786e-80 1.88893e-79 7.37792e-79 2.8283e-78 1.0638e-77 3.92472e-77 1.41981e-76 5.03487e-76 1.74959e-75 5.95561e-75 1.98522e-74 6.47778e-74 2.06834e-73 6.45994e-73 1.97279e-72 5.88856e-72 1.71726e-71 4.8908e-71 1.35976e-70 3.68887e-70 9.76078e-70 2.51792e-69 6.32953e-69 1.54979e-68 3.69443e-68 8.57027e-68 1.93381e-67 4.24232e-67 9.04414e-67 1.87288e-66 3.76569e-66 7.34831e-66 1.39113e-65 2.55405e-65 4.54598e-65 7.84227e-65 1.31092e-64 2.12307e-64 3.33105e-64 5.0634e-64 7.4579e-64 1.06472e-63 1.47404e-63 1.98022e-63 2.58364e-63 3.27745e-63 4.04764e-63 4.87423e-63 5.73342e-63 6.60033e-63 7.45154e-63 8.26703e-63 9.03112e-63 9.73246e-63 1.03633e-62 1.09185e-62 1.13947e-62 1.17898e-62 1.21028e-62 1.2334e-62 1.24856e-62 1.25615e-62 1.25683e-62 1.25145e-62 1.24108e-62 1.22687e-62 1.20995e-62 1.19132e-62 1.17166e-62 1.15137e-62 1.13054e-62 1.10908e-62 1.08694e-62 1.06422e-62 1.04126e-62 1.01869e-62 9.97273e-63 9.77738e-63 9.60647e-63 9.46295e-63 9.34738e-63 9.2591e-63 9.19805e-63 9.16623e-63 9.16834e-63 9.21104e-63 9.30111e-63 9.44278e-63 9.63511e-63 9.87015e-63 1.01323e-62 1.03994e-62 1.06449e-62 1.08415e-62 1.09647e-62 1.09968e-62 1.09295e-62 1.0766e-62 1.05207e-62 1.02177e-62 9.88754e-63 9.56263e-63 9.27261e-63 9.04008e-63 8.87783e-63 8.78786e-63 8.76255e-63 8.78733e-63 8.84428e-63 8.91548e-63 8.98566e-63 9.04349e-63 9.08171e-63 9.09641e-63 9.08613e-63 9.05109e-63 8.99297e-63 8.91503e-63 8.82259e-63 8.72335e-63 8.62728e-63 8.54598e-63 8.49129e-63 8.47358e-63 8.49997e-63 8.57296e-63 8.6901e-63 8.84475e-63 9.028e-63 9.23109e-63 9.44776e-63 9.67563e-63 9.91621e-63 1.01733e-62 1.04503e-62 1.07471e-62 1.10575e-62 1.13672e-62 1.16535e-62 1.18871e-62 1.20339e-62 1.20594e-62 1.19324e-62 1.163e-62 1.11408e-62 1.04678e-62 9.62936e-63 8.65813e-63 7.59782e-63 6.49856e-63 5.41129e-63 4.38223e-63 3.44841e-63 2.63481e-63 1.95353e-63 1.40481e-63 9.79448e-64 6.6191e-64 4.33511e-64 2.75141e-64 1.69228e-64 1.00877e-64 5.82881e-65 3.26537e-65 1.77403e-65 9.34982e-66 4.78193e-66 2.37423e-66 1.14481e-66 5.36304e-67 2.44198e-67 1.08123e-67 4.6572e-68 1.95236e-68 7.96924e-69 3.16876e-69 1.22792e-69 4.63924e-70 1.70967e-70 6.14827e-71 2.15849e-71 7.40091e-72 2.47933e-72 8.11842e-73 2.59935e-73 8.14107e-74 2.49507e-74 7.4856e-75 2.19922e-75 6.32932e-76 1.78501e-76 4.93472e-77 1.33771e-77 3.55692e-78 9.27965e-79 2.3761e-79 5.97307e-80 1.47453e-80 3.57563e-81 8.51935e-82 1.99474e-82 4.58156e-83 9.88865e-84 0 
0 3.36677e-118 2.68805e-117 2.09235e-116 1.61185e-115 1.22905e-114 9.27533e-114 6.92727e-113 5.11947e-112 3.74347e-111 2.70811e-110 1.938e-109 1.3718e-108 9.60353e-108 6.64853e-107 4.5512e-106 3.08022e-105 2.06083e-104 1.36287e-103 8.90767e-103 5.75332e-102 3.67166e-101 2.31493e-100 1.44174e-99 8.86853e-99 5.38729e-98 3.23133e-97 1.91347e-96 1.11848e-95 6.45253e-95 3.67337e-94 2.06329e-93 1.14327e-92 6.24818e-92 3.36747e-91 1.78946e-90 9.37416e-90 4.84009e-89 2.46265e-88 1.23453e-87 6.09617e-87 2.96474e-86 1.41971e-85 6.69271e-85 3.10528e-84 1.41775e-83 6.36789e-83 2.81313e-82 1.22201e-81 5.2185e-81 2.19023e-80 9.03225e-80 3.65886e-79 1.45553e-78 5.68456e-78 2.17896e-77 8.19499e-77 3.02316e-76 1.09358e-75 3.87773e-75 1.3474e-74 4.58629e-74 1.52869e-73 4.9879e-73 1.59255e-72 4.97375e-72 1.51888e-71 4.53354e-71 1.32207e-70 3.76523e-70 1.04681e-69 2.83985e-69 7.51424e-69 1.9384e-68 4.87276e-68 1.19311e-67 2.84421e-67 6.59807e-67 1.48883e-66 3.26622e-66 6.96341e-66 1.44204e-65 2.89952e-65 5.65826e-65 1.07122e-64 1.96677e-64 3.5008e-64 6.03942e-64 1.00959e-63 1.6351e-63 2.5655e-63 3.8998e-63 5.74414e-63 8.20069e-63 1.13533e-62 1.5252e-62 1.98995e-62 2.52427e-62 3.11737e-62 3.75382e-62 4.41528e-62 5.08255e-62 5.73759e-62 6.36497e-62 6.95264e-62 7.49186e-62 7.97671e-62 8.40328e-62 8.76904e-62 9.07241e-62 9.31268e-62 9.49015e-62 9.60641e-62 9.66464e-62 9.66975e-62 9.62844e-62 9.54879e-62 9.43971e-62 9.3099e-62 9.16688e-62 9.01604e-62 8.8603e-62 8.70038e-62 8.53571e-62 8.36576e-62 8.19129e-62 8.01507e-62 7.84181e-62 7.67736e-62 7.5274e-62 7.39622e-62 7.28609e-62 7.19742e-62 7.12973e-62 7.08296e-62 7.05864e-62 7.06036e-62 7.09325e-62 7.16251e-62 7.27136e-62 7.41908e-62 7.59957e-62 7.80084e-62 8.00586e-62 8.1943e-62 8.34513e-62 8.4396e-62 8.46408e-62 8.41229e-62 8.2866e-62 8.09813e-62 7.8654e-62 7.61181e-62 7.36229e-62 7.13958e-62 6.96108e-62 6.83656e-62 6.76758e-62 6.74828e-62 6.76746e-62 6.81133e-62 6.86616e-62 6.92019e-62 6.96472e-62 6.99416e-62 7.00552e-62 6.99767e-62 6.97078e-62 6.92612e-62 6.8662e-62 6.7951e-62 6.71872e-62 6.64475e-62 6.58206e-62 6.5398e-62 6.52593e-62 6.54593e-62 6.60174e-62 6.6915e-62 6.81011e-62 6.95072e-62 7.10661e-62 7.27297e-62 7.44795e-62 7.6327e-62 7.83012e-62 8.04284e-62 8.27079e-62 8.50911e-62 8.74684e-62 8.96665e-62 9.14585e-62 9.2584e-62 9.27768e-62 9.17985e-62 8.94714e-62 8.57081e-62 8.05318e-62 7.40834e-62 6.66134e-62 5.84578e-62 5.00021e-62 4.1638e-62 3.37211e-62 2.65365e-62 2.02763e-62 1.5034e-62 1.08114e-62 7.53805e-63 5.09431e-63 3.33652e-63 2.11765e-63 1.30249e-63 7.76421e-64 4.48629e-64 2.51328e-64 1.36543e-64 7.19634e-65 3.68054e-65 1.82739e-65 8.81134e-66 4.12783e-66 1.87956e-66 8.32209e-67 3.58463e-67 1.50274e-67 6.13406e-68 2.43909e-68 9.45185e-69 3.57114e-69 1.31609e-69 4.73304e-70 1.66171e-70 5.69781e-71 1.90887e-71 6.25081e-72 2.0015e-72 6.26899e-73 1.92144e-73 5.76503e-74 1.69385e-74 4.87527e-75 1.37505e-75 3.80171e-76 1.03067e-76 2.74078e-77 7.15115e-78 1.83128e-78 4.60401e-79 1.13669e-79 2.75672e-80 6.56903e-81 1.53829e-81 3.53363e-82 7.62778e-83 0 
0 2.59254e-117 2.06941e-116 1.61041e-115 1.24029e-114 9.45501e-114 7.13375e-113 5.32657e-112 3.93557e-111 2.87711e-110 2.08088e-109 1.48879e-108 1.05359e-107 7.37418e-107 5.104e-106 3.49313e-105 2.3636e-104 1.58103e-103 1.04534e-102 6.83086e-102 4.41101e-101 2.81443e-100 1.7741e-99 1.10468e-98 6.79383e-98 4.12617e-97 2.47442e-96 1.46497e-95 8.56153e-95 4.93825e-94 2.81078e-93 1.5785e-92 8.74489e-92 4.77841e-91 2.57489e-90 1.36806e-89 7.16543e-89 3.69907e-88 1.8818e-87 9.432e-87 4.65688e-86 2.26444e-85 1.0842e-84 5.11039e-84 2.37079e-83 1.08227e-82 4.86045e-82 2.14692e-81 9.32506e-81 3.98174e-80 1.67098e-79 6.89018e-79 2.79086e-78 1.11012e-77 4.33519e-77 1.66159e-76 6.24869e-76 2.30499e-75 8.33736e-75 2.95616e-74 1.02712e-73 3.49593e-73 1.1652e-72 3.80171e-72 1.21378e-71 3.79067e-71 1.15756e-70 3.45501e-70 1.00753e-69 2.8694e-69 7.97746e-69 2.16418e-68 5.72643e-68 1.47723e-67 3.7135e-67 9.0928e-67 2.16765e-66 5.02868e-66 1.13474e-65 2.48948e-65 5.30762e-65 1.09919e-64 2.21022e-64 4.31331e-64 8.16628e-64 1.4994e-63 2.66899e-63 4.60461e-63 7.69761e-63 1.24673e-62 1.9562e-62 2.97368e-62 4.38011e-62 6.25341e-62 8.6575e-62 1.16305e-61 1.51742e-61 1.92482e-61 2.377e-61 2.86217e-61 3.36633e-61 3.87481e-61 4.37385e-61 4.85169e-61 5.29914e-61 5.70957e-61 6.07849e-61 6.40295e-61 6.68106e-61 6.91167e-61 7.09425e-61 7.22908e-61 7.31738e-61 7.36157e-61 7.36541e-61 7.33397e-61 7.27343e-61 7.19053e-61 7.09191e-61 6.98324e-61 6.86864e-61 6.75031e-61 6.6288e-61 6.50367e-61 6.37452e-61 6.24193e-61 6.108e-61 5.97632e-61 5.85134e-61 5.73738e-61 5.63771e-61 5.55405e-61 5.48671e-61 5.43532e-61 5.39985e-61 5.38145e-61 5.38284e-61 5.40792e-61 5.46063e-61 5.54343e-61 5.65575e-61 5.79295e-61 5.94593e-61 6.10174e-61 6.24491e-61 6.35947e-61 6.43119e-61 6.4497e-61 6.41022e-61 6.31458e-61 6.17123e-61 5.99424e-61 5.80142e-61 5.61171e-61 5.44242e-61 5.30675e-61 5.21216e-61 5.15981e-61 5.14524e-61 5.15993e-61 5.19341e-61 5.2352e-61 5.27638e-61 5.31032e-61 5.33278e-61 5.34147e-61 5.33554e-61 5.3151e-61 5.28113e-61 5.23552e-61 5.18138e-61 5.12319e-61 5.06679e-61 5.01895e-61 4.98661e-61 4.97586e-61 4.99086e-61 5.03311e-61 5.1012e-61 5.19125e-61 5.29807e-61 5.41653e-61 5.54298e-61 5.676e-61 5.81645e-61 5.96654e-61 6.12826e-61 6.30154e-61 6.48269e-61 6.66337e-61 6.8304e-61 6.96653e-61 7.05193e-61 7.06639e-61 6.99173e-61 6.81445e-61 6.52786e-61 6.13372e-61 5.64272e-61 5.07392e-61 4.45289e-61 3.80895e-61 3.17194e-61 2.56895e-61 2.02169e-61 1.54481e-61 1.14544e-61 8.23752e-62 5.74356e-62 3.88164e-62 2.54231e-62 1.61359e-62 9.92471e-63 5.91617e-63 3.41846e-63 1.91506e-63 1.04042e-63 5.48339e-64 2.80444e-64 1.3924e-64 6.71386e-65 3.14522e-65 1.43213e-65 6.34103e-66 2.73132e-66 1.14503e-66 4.67393e-67 1.85852e-67 7.20216e-68 2.7212e-68 1.00288e-68 3.60675e-69 1.26632e-69 4.34223e-70 1.45479e-70 4.76408e-71 1.52552e-71 4.77844e-72 1.46467e-72 4.39484e-73 1.29136e-73 3.71709e-74 1.04847e-74 2.89904e-75 7.86016e-76 2.09039e-76 5.4547e-77 1.39699e-77 3.51255e-78 8.67314e-79 2.10367e-79 5.01345e-80 1.17416e-80 2.69752e-81 5.82363e-82 0 
0 1.97598e-116 1.57689e-115 1.22684e-114 9.4464e-114 7.1995e-113 5.43069e-112 4.05399e-111 2.99462e-110 2.18871e-109 1.58263e-108 1.13205e-107 8.00952e-107 5.60468e-106 3.87839e-105 2.65375e-104 1.79525e-103 1.20059e-102 7.93636e-102 5.18498e-101 3.34749e-100 2.13541e-99 1.3458e-98 8.37824e-98 5.15161e-97 3.12817e-96 1.87556e-95 1.11021e-94 6.48703e-94 3.741e-93 2.12894e-92 1.19537e-91 6.62118e-91 3.61735e-90 1.94891e-89 1.0353e-88 5.42167e-88 2.79843e-87 1.42341e-86 7.13334e-86 3.52144e-85 1.71208e-84 8.19623e-84 3.86276e-83 1.79176e-82 8.17837e-82 3.67244e-81 1.62198e-80 7.04418e-80 3.00749e-79 1.26199e-78 5.20324e-78 2.10736e-77 8.38175e-77 3.27292e-76 1.25435e-75 4.71682e-75 1.7398e-74 6.29263e-74 2.23103e-73 7.75135e-73 2.63815e-72 8.79262e-72 2.86867e-71 9.15857e-71 2.86018e-70 8.73399e-70 2.60683e-69 7.60183e-69 2.16496e-68 6.019e-68 1.63288e-67 4.32068e-67 1.11461e-66 2.802e-66 6.86109e-66 1.63567e-65 3.79469e-65 8.56314e-65 1.87873e-64 4.00566e-64 8.29593e-64 1.6682e-63 3.2557e-63 6.16421e-63 1.13185e-62 2.01484e-62 3.4762e-62 5.81148e-62 9.41282e-62 1.47698e-61 2.24527e-61 3.30727e-61 4.72181e-61 6.53715e-61 8.78198e-61 1.14577e-60 1.45336e-60 1.79472e-60 2.16094e-60 2.54143e-60 2.92512e-60 3.30158e-60 3.66195e-60 3.99928e-60 4.3086e-60 4.58654e-60 4.8309e-60 5.04029e-60 5.21385e-60 5.35123e-60 5.45264e-60 5.51904e-60 5.55224e-60 5.55509e-60 5.53141e-60 5.48585e-60 5.42347e-60 5.34927e-60 5.26752e-60 5.18131e-60 5.0923e-60 5.00088e-60 4.90674e-60 4.80956e-60 4.70979e-60 4.60901e-60 4.50992e-60 4.41588e-60 4.33013e-60 4.25515e-60 4.19222e-60 4.14158e-60 4.10296e-60 4.07632e-60 4.06253e-60 4.06365e-60 4.08258e-60 4.12231e-60 4.18466e-60 4.26922e-60 4.37249e-60 4.48762e-60 4.60485e-60 4.71256e-60 4.79873e-60 4.85263e-60 4.86648e-60 4.83669e-60 4.76463e-60 4.65667e-60 4.5234e-60 4.37823e-60 4.23542e-60 4.10801e-60 4.00592e-60 3.93477e-60 3.89543e-60 3.88455e-60 3.8957e-60 3.92099e-60 3.95253e-60 3.98361e-60 4.00923e-60 4.02619e-60 4.03277e-60 4.02833e-60 4.01295e-60 3.98736e-60 3.95298e-60 3.91216e-60 3.86826e-60 3.82568e-60 3.78953e-60 3.76503e-60 3.75678e-60 3.76792e-60 3.79959e-60 3.85073e-60 3.91843e-60 3.99878e-60 4.08791e-60 4.18307e-60 4.2832e-60 4.38892e-60 4.5019e-60 4.62362e-60 4.75405e-60 4.89038e-60 5.02634e-60 5.15202e-60 5.2544e-60 5.31858e-60 5.32931e-60 5.2729e-60 5.13917e-60 4.92307e-60 4.62591e-60 4.25573e-60 3.82688e-60 3.35861e-60 2.87304e-60 2.39265e-60 1.93789e-60 1.52512e-60 1.16542e-60 8.64157e-61 6.21479e-61 4.33332e-61 2.92861e-61 1.91814e-61 1.21744e-61 7.4881e-62 4.46368e-62 2.57917e-62 1.44487e-62 7.8497e-63 4.13701e-63 2.11582e-63 1.05049e-63 5.06517e-64 2.37284e-64 1.08043e-64 4.78377e-65 2.06054e-65 8.6382e-66 3.52607e-66 1.40209e-66 5.43346e-67 2.05295e-67 7.56615e-68 2.72114e-68 9.55409e-69 3.27621e-69 1.09767e-69 3.59475e-70 1.15114e-70 3.60591e-71 1.10533e-71 3.31681e-72 9.74658e-73 2.80568e-73 7.9145e-74 2.18853e-74 5.93426e-75 1.57834e-75 4.11893e-76 1.05499e-76 2.6529e-77 6.55121e-78 1.58917e-78 3.78774e-79 8.872e-80 2.03851e-80 4.40141e-81 0 
0 1.49055e-115 1.18922e-114 9.25002e-114 7.12064e-113 5.42565e-112 4.09168e-111 3.05371e-110 2.2552e-109 1.64791e-108 1.19131e-107 8.51948e-107 6.02636e-106 4.21602e-105 2.91681e-104 1.99536e-103 1.34956e-102 9.02341e-102 5.96354e-101 3.89528e-100 2.51432e-99 1.6036e-98 1.01043e-97 6.28915e-97 3.86631e-96 2.34725e-95 1.40708e-94 8.32743e-94 4.86487e-93 2.80501e-92 1.59599e-91 8.95973e-91 4.96196e-90 2.71041e-89 1.46004e-88 7.75475e-88 4.06038e-87 2.09547e-86 1.06569e-85 5.33985e-85 2.63569e-84 1.28126e-83 6.13294e-83 2.88999e-82 1.34037e-81 6.11725e-81 2.74659e-80 1.21293e-79 5.26712e-79 2.24855e-78 9.43434e-78 3.88945e-77 1.57513e-76 6.26432e-76 2.44591e-75 9.37326e-75 3.52447e-74 1.29992e-73 4.70137e-73 1.66677e-72 5.79065e-72 1.97075e-71 6.56805e-71 2.14282e-70 6.84105e-70 2.13639e-69 6.52371e-69 1.94712e-68 5.67802e-68 1.61708e-67 4.49582e-67 1.21968e-66 3.2274e-66 8.32593e-66 2.09311e-65 5.12544e-65 1.22194e-64 2.83497e-64 6.39771e-64 1.40371e-63 2.99301e-63 6.199e-63 1.2466e-62 2.43303e-62 4.60685e-62 8.45941e-62 1.50596e-61 2.59836e-61 4.34411e-61 7.03644e-61 1.10414e-60 1.67855e-60 2.47256e-60 3.53015e-60 4.88739e-60 6.56571e-60 8.56606e-60 1.08655e-59 1.34171e-59 1.61542e-59 1.89974e-59 2.18638e-59 2.46757e-59 2.73665e-59 2.98845e-59 3.21925e-59 3.42657e-59 3.60877e-59 3.76484e-59 3.89417e-59 3.99651e-59 4.07203e-59 4.12146e-59 4.14616e-59 4.14825e-59 4.13059e-59 4.09663e-59 4.05017e-59 3.99489e-59 3.93401e-59 3.8698e-59 3.8035e-59 3.73542e-59 3.66529e-59 3.5929e-59 3.51857e-59 3.44349e-59 3.36967e-59 3.29961e-59 3.23573e-59 3.17988e-59 3.13302e-59 3.09533e-59 3.06659e-59 3.04678e-59 3.03656e-59 3.03743e-59 3.05159e-59 3.08122e-59 3.12771e-59 3.19074e-59 3.2677e-59 3.35348e-59 3.44081e-59 3.52104e-59 3.5852e-59 3.62532e-59 3.63558e-59 3.61332e-59 3.55957e-59 3.47906e-59 3.37971e-59 3.27151e-59 3.16507e-59 3.07013e-59 2.99407e-59 2.94109e-59 2.91183e-59 2.90378e-59 2.91216e-59 2.93108e-59 2.95465e-59 2.97787e-59 2.99701e-59 3.00969e-59 3.01463e-59 3.01133e-59 2.99988e-59 2.98079e-59 2.95514e-59 2.92466e-59 2.89187e-59 2.86005e-59 2.833e-59 2.81462e-59 2.80836e-59 2.81655e-59 2.84005e-59 2.87808e-59 2.92847e-59 2.9883e-59 3.0547e-59 3.12561e-59 3.20022e-59 3.27901e-59 3.36321e-59 3.45392e-59 3.55111e-59 3.65269e-59 3.75399e-59 3.8476e-59 3.92385e-59 3.97159e-59 3.97947e-59 3.93728e-59 3.8374e-59 3.67607e-59 3.45424e-59 3.17792e-59 2.85778e-59 2.5082e-59 2.14567e-59 1.78698e-59 1.4474e-59 1.13915e-59 8.70506e-60 6.45501e-60 4.64238e-60 3.237e-60 2.18771e-60 1.43288e-60 9.09451e-61 5.59374e-61 3.33442e-61 1.92666e-61 1.07931e-61 5.86359e-62 3.09022e-62 1.58043e-62 7.84654e-63 3.78332e-63 1.77231e-63 8.06977e-64 3.57297e-64 1.53899e-64 6.45167e-65 2.63352e-65 1.04718e-65 4.05809e-66 1.5333e-66 5.65101e-67 2.03239e-67 7.13598e-68 2.44706e-68 8.19896e-69 2.68515e-69 8.5989e-70 2.6937e-70 8.25748e-71 2.47798e-71 7.28204e-72 2.09636e-72 5.91398e-73 1.63547e-73 4.43494e-74 1.17966e-74 3.07878e-75 7.88648e-76 1.98334e-76 4.89825e-77 1.18832e-77 2.83265e-78 6.63565e-79 1.52485e-79 3.2927e-80 0 
0 1.11269e-114 8.87537e-114 6.90182e-113 5.31174e-112 4.04639e-111 3.05081e-110 2.27636e-109 1.68073e-108 1.22785e-107 8.87438e-107 6.34498e-106 4.4872e-105 3.13854e-104 2.17089e-103 1.48476e-102 1.004e-101 6.71154e-101 4.4347e-100 2.89607e-99 1.86897e-98 1.19176e-97 7.5078e-97 4.67212e-96 2.87168e-95 1.74307e-94 1.0447e-93 6.18165e-93 3.61065e-92 2.08147e-91 1.18411e-90 6.6463e-90 3.68015e-89 2.0099e-88 1.08252e-87 5.74869e-87 3.00954e-86 1.55292e-85 7.89648e-85 3.95614e-84 1.95243e-83 9.48987e-83 4.54187e-82 2.13997e-81 9.92389e-81 4.5286e-80 2.03307e-79 8.9773e-79 3.89798e-78 1.66389e-77 6.98063e-77 2.87761e-76 1.16526e-75 4.63392e-75 1.80919e-74 6.93274e-74 2.60664e-73 9.61347e-73 3.47669e-72 1.23253e-71 4.28186e-71 1.45721e-70 4.8564e-70 1.58437e-69 5.05807e-69 1.57957e-68 4.82337e-68 1.43962e-67 4.19814e-67 1.19563e-66 3.32416e-66 9.0184e-66 2.38642e-65 6.15662e-65 1.54781e-64 3.79031e-64 9.0368e-64 2.09669e-63 4.73187e-63 1.03827e-62 2.21394e-62 4.58569e-62 9.22229e-62 1.80005e-61 3.40853e-61 6.25935e-61 1.11437e-60 1.92282e-60 3.21487e-60 5.20758e-60 8.17198e-60 1.24237e-59 1.83011e-59 2.61297e-59 3.61762e-59 4.85992e-59 6.34051e-59 8.04234e-59 9.93062e-59 1.19559e-58 1.40593e-58 1.61795e-58 1.82587e-58 2.02478e-58 2.21085e-58 2.38135e-58 2.53443e-58 2.66893e-58 2.7841e-58 2.8795e-58 2.95497e-58 3.01064e-58 3.04707e-58 3.06525e-58 3.06677e-58 3.05373e-58 3.02868e-58 2.99441e-58 2.95365e-58 2.90876e-58 2.86142e-58 2.81254e-58 2.76233e-58 2.71062e-58 2.65724e-58 2.60242e-58 2.54705e-58 2.4926e-58 2.44093e-58 2.39383e-58 2.35264e-58 2.3181e-58 2.29032e-58 2.26915e-58 2.25457e-58 2.24706e-58 2.24774e-58 2.25822e-58 2.2801e-58 2.31442e-58 2.36093e-58 2.4177e-58 2.48097e-58 2.54538e-58 2.60454e-58 2.65184e-58 2.68139e-58 2.68892e-58 2.67246e-58 2.63276e-58 2.57334e-58 2.50001e-58 2.42016e-58 2.34164e-58 2.2716e-58 2.2155e-58 2.17645e-58 2.1549e-58 2.14901e-58 2.15525e-58 2.16926e-58 2.1867e-58 2.20388e-58 2.21804e-58 2.22742e-58 2.23109e-58 2.22867e-58 2.22021e-58 2.20612e-58 2.18717e-58 2.16464e-58 2.1404e-58 2.11685e-58 2.09681e-58 2.08317e-58 2.07846e-58 2.08442e-58 2.10168e-58 2.12968e-58 2.16681e-58 2.21092e-58 2.25989e-58 2.31219e-58 2.36724e-58 2.42537e-58 2.48748e-58 2.5544e-58 2.6261e-58 2.70103e-58 2.77575e-58 2.84478e-58 2.90099e-58 2.93615e-58 2.94188e-58 2.91063e-58 2.83679e-58 2.71755e-58 2.55362e-58 2.34941e-58 2.11281e-58 1.85444e-58 1.58647e-58 1.32133e-58 1.07028e-58 8.42374e-59 6.43743e-59 4.77364e-59 3.43324e-59 2.39394e-59 1.61795e-59 1.05971e-59 6.72597e-60 4.1369e-60 2.46597e-60 1.42483e-60 7.98176e-61 4.33617e-61 2.28519e-61 1.16868e-61 5.80214e-62 2.79752e-62 1.31047e-62 5.96677e-63 2.64179e-63 1.13788e-63 4.77007e-64 1.94708e-64 7.74219e-65 3.00027e-65 1.13361e-65 4.17796e-66 1.50262e-66 5.27593e-67 1.80924e-67 6.06204e-68 1.98536e-68 6.35809e-69 1.99181e-69 6.10609e-70 1.83245e-70 5.38531e-71 1.55041e-71 4.37409e-72 1.2097e-72 3.28061e-73 8.72682e-74 2.27779e-74 5.83519e-75 1.4676e-75 3.62488e-76 8.79489e-77 2.09669e-77 4.91216e-78 1.12892e-78 2.43802e-79 0 
0 8.219e-114 6.55439e-113 5.09573e-112 3.92082e-111 2.98611e-110 2.25088e-109 1.6791e-108 1.23947e-107 9.05285e-107 6.54154e-106 4.67601e-105 3.30617e-104 2.31197e-103 1.59882e-102 1.09326e-101 7.39114e-101 4.93977e-100 3.26332e-99 2.13067e-98 1.37474e-97 8.76439e-97 5.52026e-96 3.43461e-95 2.11064e-94 1.28089e-93 7.67556e-93 4.54091e-92 2.65183e-91 1.52846e-90 8.69363e-90 4.87883e-89 2.70103e-88 1.47492e-87 7.94253e-87 4.21722e-86 2.20745e-85 1.13888e-84 5.79028e-84 2.90052e-83 1.43127e-82 6.95586e-82 3.32866e-81 1.56816e-80 7.27132e-80 3.31777e-79 1.48932e-78 6.57561e-78 2.85488e-77 1.21852e-76 5.11169e-76 2.10701e-75 8.53147e-75 3.39248e-74 1.32441e-73 5.07479e-73 1.90797e-72 7.03636e-72 2.54457e-71 9.0205e-71 3.13365e-70 1.06642e-69 3.55397e-69 1.15944e-68 3.70147e-68 1.15592e-67 3.52972e-67 1.05352e-66 3.07225e-66 8.74994e-66 2.43278e-65 6.60031e-65 1.74662e-64 4.50621e-64 1.13294e-63 2.77451e-63 6.6153e-63 1.53495e-62 3.46434e-62 7.60195e-62 1.6211e-61 3.35798e-61 6.7537e-61 1.31831e-60 2.49649e-60 4.58482e-60 8.16298e-60 1.4086e-59 2.35525e-59 3.81534e-59 5.9875e-59 9.10308e-59 1.341e-58 1.91468e-58 2.65089e-58 3.56121e-58 4.64611e-58 5.89302e-58 7.2764e-58 8.75992e-58 1.03004e-57 1.18528e-57 1.33748e-57 1.48304e-57 1.61915e-57 1.74383e-57 1.85573e-57 1.954e-57 2.03812e-57 2.10779e-57 2.16287e-57 2.2035e-57 2.23007e-57 2.24333e-57 2.24442e-57 2.23489e-57 2.21659e-57 2.19157e-57 2.16182e-57 2.12906e-57 2.0945e-57 2.05883e-57 2.02219e-57 1.98444e-57 1.94547e-57 1.90545e-57 1.86502e-57 1.82528e-57 1.78755e-57 1.75317e-57 1.72311e-57 1.6979e-57 1.67764e-57 1.6622e-57 1.65158e-57 1.64612e-57 1.64665e-57 1.65431e-57 1.67032e-57 1.69539e-57 1.72936e-57 1.77082e-57 1.81702e-57 1.86404e-57 1.90722e-57 1.94174e-57 1.96329e-57 1.96876e-57 1.9567e-57 1.92768e-57 1.88426e-57 1.83069e-57 1.77237e-57 1.71502e-57 1.66387e-57 1.62292e-57 1.59442e-57 1.57872e-57 1.57445e-57 1.57905e-57 1.58932e-57 1.6021e-57 1.61467e-57 1.62504e-57 1.63192e-57 1.63461e-57 1.63285e-57 1.62668e-57 1.61637e-57 1.60252e-57 1.58603e-57 1.56828e-57 1.55103e-57 1.53634e-57 1.52631e-57 1.52281e-57 1.5271e-57 1.53966e-57 1.56006e-57 1.58715e-57 1.61934e-57 1.65509e-57 1.69328e-57 1.73347e-57 1.77593e-57 1.82129e-57 1.87016e-57 1.92251e-57 1.97723e-57 2.03177e-57 2.08217e-57 2.12319e-57 2.14882e-57 2.15294e-57 2.13004e-57 2.07599e-57 1.98875e-57 1.86883e-57 1.71944e-57 1.54634e-57 1.3573e-57 1.16122e-57 9.67193e-58 7.83462e-58 6.16658e-58 4.71266e-58 3.49475e-58 2.5135e-58 1.75265e-58 1.18454e-58 7.7584e-59 4.92422e-59 3.02867e-59 1.80534e-59 1.0431e-59 5.84316e-60 3.17427e-60 1.67281e-60 8.55472e-61 4.24702e-61 2.04764e-61 9.5917e-62 4.3671e-62 1.93348e-62 8.32767e-63 3.49095e-63 1.42492e-63 5.66584e-64 2.19561e-64 8.29571e-65 3.05739e-65 1.0996e-65 3.86087e-66 1.32399e-66 4.43623e-67 1.45292e-67 4.65306e-68 1.45771e-68 4.46891e-69 1.34118e-69 3.9417e-70 1.13486e-70 3.20189e-71 8.85566e-72 2.40174e-72 6.38937e-73 1.66781e-73 4.27291e-74 1.07477e-74 2.65484e-75 6.44194e-76 1.5359e-76 3.59871e-77 8.27152e-78 1.7865e-78 0 
0 6.00678e-113 4.78911e-112 3.72243e-111 2.86349e-110 2.18033e-109 1.64313e-108 1.22545e-107 9.0439e-107 6.604e-106 4.77095e-105 3.40961e-104 2.41024e-103 1.68509e-102 1.16505e-101 7.9649e-101 5.38364e-100 3.59734e-99 2.37599e-98 1.55101e-97 1.00054e-96 6.37747e-96 4.01607e-95 2.49825e-94 1.53494e-93 9.31344e-93 5.57992e-92 3.30052e-91 1.92713e-90 1.11056e-89 6.31563e-89 3.54372e-88 1.96156e-87 1.07096e-86 5.76628e-86 3.06124e-85 1.60214e-84 8.2646e-84 4.2013e-83 2.10428e-82 1.03823e-81 5.04505e-81 2.41397e-80 1.1371e-79 5.272e-79 2.40526e-78 1.07959e-77 4.76612e-77 2.06907e-76 8.83046e-76 3.70406e-75 1.52668e-74 6.18122e-74 2.45776e-73 9.59444e-73 3.67612e-72 1.38204e-71 5.0966e-71 1.84302e-70 6.53331e-70 2.26957e-69 7.72349e-69 2.57391e-68 8.39701e-68 2.68071e-67 8.37156e-67 2.55638e-66 7.63017e-66 2.22515e-65 6.33753e-65 1.76211e-64 4.78093e-64 1.26522e-63 3.26438e-63 8.20769e-63 2.01014e-62 4.79311e-62 1.11222e-61 2.51043e-61 5.50915e-61 1.1749e-60 2.43391e-60 4.89554e-60 9.55673e-60 1.80991e-59 3.32415e-59 5.91887e-59 1.02143e-58 1.70799e-58 2.76699e-58 4.34253e-58 6.60246e-58 9.72662e-58 1.3888e-57 1.92284e-57 2.58317e-57 3.37008e-57 4.27444e-57 5.27767e-57 6.35335e-57 7.47014e-57 8.59529e-57 9.69808e-57 1.07524e-56 1.1738e-56 1.26404e-56 1.345e-56 1.41608e-56 1.47689e-56 1.52724e-56 1.56704e-56 1.59639e-56 1.61557e-56 1.62513e-56 1.62591e-56 1.61901e-56 1.60579e-56 1.5877e-56 1.56621e-56 1.54254e-56 1.51758e-56 1.49181e-56 1.46533e-56 1.43806e-56 1.40991e-56 1.38099e-56 1.35178e-56 1.32305e-56 1.2958e-56 1.27095e-56 1.24924e-56 1.23103e-56 1.2164e-56 1.20526e-56 1.1976e-56 1.19367e-56 1.19407e-56 1.19963e-56 1.21121e-56 1.22934e-56 1.2539e-56 1.28387e-56 1.31726e-56 1.35123e-56 1.38243e-56 1.40736e-56 1.42292e-56 1.42685e-56 1.41811e-56 1.39712e-56 1.36571e-56 1.32697e-56 1.2848e-56 1.24334e-56 1.20638e-56 1.17679e-56 1.1562e-56 1.14488e-56 1.14182e-56 1.14517e-56 1.15263e-56 1.16189e-56 1.17101e-56 1.17853e-56 1.18351e-56 1.18547e-56 1.1842e-56 1.17974e-56 1.17228e-56 1.16225e-56 1.15031e-56 1.13745e-56 1.12494e-56 1.11428e-56 1.10699e-56 1.10441e-56 1.10747e-56 1.1165e-56 1.13122e-56 1.15078e-56 1.17403e-56 1.19986e-56 1.22747e-56 1.25652e-56 1.28721e-56 1.32e-56 1.35532e-56 1.39316e-56 1.4327e-56 1.47212e-56 1.50853e-56 1.53816e-56 1.55666e-56 1.5596e-56 1.54298e-56 1.50382e-56 1.44064e-56 1.3538e-56 1.24562e-56 1.12027e-56 9.83365e-57 8.41348e-57 7.00798e-57 5.67697e-57 4.46848e-57 3.41505e-57 2.53255e-57 1.8215e-57 1.27014e-57 8.58433e-58 5.62249e-58 3.56853e-58 2.19481e-58 1.30826e-58 7.55872e-59 4.23406e-59 2.30005e-59 1.21206e-59 6.19822e-60 3.077e-60 1.48348e-60 6.9487e-61 3.16362e-61 1.4006e-61 6.0323e-62 2.52865e-62 1.0321e-62 4.10378e-63 1.59025e-63 6.00835e-64 2.21435e-64 7.96386e-65 2.79623e-65 9.58901e-66 3.21294e-66 1.05229e-66 3.37007e-67 1.0558e-67 3.23684e-68 9.7145e-69 2.85518e-69 8.22068e-70 2.31949e-70 6.41551e-71 1.74005e-71 4.62936e-72 1.20848e-72 3.09634e-73 7.78883e-74 1.92413e-74 4.66929e-75 1.11337e-75 2.60894e-76 5.99719e-77 1.29541e-77 0 