# vtk DataFile Version 3.0
Gray-Scott Simulation Output
ASCII
DATASET STRUCTURED_POINTS
DIMENSIONS 256 256 1
SPACING 1.0 1.0 1.0
ORIGIN 0 0 0
POINT_DATA 65536
SCALARS u double
LOOKUP_TABLE default
0 0 0 0 0 0 0 0 0 0 0 0 0 0 0 0 0 0 0 0 0 0 0 0 0 0 0 0 0 0 0 0 0 0 0 0 0 0 0 0 0 0 0 0 0 0 0 0 0 0 0 0 0 0 0 0 0 0 0 0 0 0 0 0 0 0 0 0 0 0 0 0 0 0 0 0 0 0 0 0 0 0 0 0 0 0 0 0 0 0 0 0 0 0 0 0 0 0 0 0 0 0 0 0 0 0 0 0 0 0 0 0 0 0 0 0 0 0 0 0 0 0 0 0 0 0 0 0 0 0 0 0 0 0 0 0 0 0 0 0 0 0 0 0 0 0 0 0 0 0 0 0 0 0 0 0 0 0 0 0 0 0 0 0 0 0 0 0 0 0 0 0 0 0 0 0 0 0 0 0 0 0 0 0 0 0 0 0 0 0 0 0 0 0 0 0 0 0 0 0 0 0 0 0 0 0 0 0 0 0 0 0 0 0 0 0 0 0 0 0 0 0 0 0 0 0 0 0 0 0 0 0 0 0 0 0 0 0 0 0 0 0 0 0 0 0 0 0 0 0 0 0 0 0 0 0 
0 7.08225e-84 2.93312e-83 1.13578e-82 4.34374e-82 1.6462e-81 6.18325e-81 2.30167e-80 8.49053e-80 3.10355e-79 1.12405e-78 4.03352e-78 1.43391e-77 5.04974e-77 1.76154e-76 6.08635e-76 2.08273e-75 7.05803e-75 2.36852e-74 7.87003e-74 2.58909e-73 8.43248e-73 2.71871e-72 8.67628e-72 2.7405e-71 8.56671e-71 2.65001e-70 8.11134e-70 2.45645e-69 7.35963e-69 2.18119e-68 6.39413e-68 1.85386e-67 5.31542e-67 1.50703e-66 4.22459e-66 1.1708e-65 3.20753e-65 8.68568e-65 2.32454e-64 6.14784e-64 1.60662e-63 4.14824e-63 1.05809e-62 2.6659e-62 6.63401e-62 1.63031e-61 3.95617e-61 9.4785e-61 2.24188e-60 5.2341e-60 1.20608e-59 2.74258e-59 6.15378e-59 1.36228e-58 2.97496e-58 6.40812e-58 1.36132e-57 2.85178e-57 5.89036e-57 1.19945e-56 2.40761e-56 4.76314e-56 9.28652e-56 1.78406e-55 3.37684e-55 6.29654e-55 1.15646e-54 2.09194e-54 3.72653e-54 6.53656e-54 1.12885e-53 1.9192e-53 3.21187e-53 5.29067e-53 8.57709e-53 1.3684e-52 2.14831e-52 3.3187e-52 5.04432e-52 7.54374e-52 1.10996e-51 1.60681e-51 2.28853e-51 3.20699e-51 4.42188e-51 5.9995e-51 8.01054e-51 1.05269e-50 1.36174e-50 1.73429e-50 2.17508e-50 2.687e-50 3.27054e-50 3.92353e-50 4.64085e-50 5.41455e-50 6.23399e-50 7.08638e-50 7.95733e-50 8.83164e-50 9.69406e-50 1.053e-49 1.13264e-49 1.20719e-49 1.27573e-49 1.33759e-49 1.39234e-49 1.43975e-49 1.47979e-49 1.51261e-49 1.53849e-49 1.55781e-49 1.57106e-49 1.57874e-49 1.58143e-49 1.57969e-49 1.57411e-49 1.56524e-49 1.55364e-49 1.53983e-49 1.5243e-49 1.50751e-49 1.48991e-49 1.47192e-49 1.45392e-49 1.4363e-49 1.41944e-49 1.40367e-49 1.38934e-49 1.37676e-49 1.36621e-49 1.35791e-49 1.35207e-49 1.34879e-49 1.34811e-49 1.34997e-49 1.35418e-49 1.36046e-49 1.36837e-49 1.3774e-49 1.38691e-49 1.39621e-49 1.4046e-49 1.4114e-49 1.41604e-49 1.41806e-49 1.41721e-49 1.41343e-49 1.40689e-49 1.39794e-49 1.38711e-49 1.37504e-49 1.36243e-49 1.34995e-49 1.33819e-49 1.32762e-49 1.31857e-49 1.31115e-49 1.30535e-49 1.30099e-49 1.29778e-49 1.29537e-49 1.29341e-49 1.29156e-49 1.28954e-49 1.2872e-49 1.28445e-49 1.28136e-49 1.27809e-49 1.2749e-49 1.27213e-49 1.27015e-49 1.26934e-49 1.2701e-49 1.27274e-49 1.27754e-49 1.28466e-49 1.29421e-49 1.30614e-49 1.32035e-49 1.33661e-49 1.35456e-49 1.37376e-49 1.39362e-49 1.41342e-49 1.43229e-49 1.44925e-49 1.46314e-49 1.47271e-49 1.47665e-49 1.47363e-49 1.46237e-49 1.44178e-49 1.41101e-49 1.36954e-49 1.31725e-49 1.25452e-49 1.18217e-49 1.10149e-49 1.01417e-49 9.22172e-50 8.27686e-50 7.32935e-50 6.40072e-50 5.51052e-50 4.67531e-50 3.90801e-50 3.21748e-50 2.60851e-50 2.0821e-50 1.63596e-50 1.26516e-50 9.62881e-51 7.21128e-51 5.31416e-51 3.85317e-51 2.74884e-51 1.92939e-51 1.33238e-51 9.0528e-52 6.05191e-52 3.98083e-52 2.57659e-52 1.6411e-52 1.02865e-52 6.34563e-53 3.85295e-53 2.30282e-53 1.35492e-53 7.84869e-54 4.47666e-54 2.51438e-54 1.39083e-54 7.57762e-55 4.06683e-55 2.15027e-55 1.12021e-55 5.75071e-56 2.90948e-56 1.45089e-56 7.13231e-57 3.45666e-57 1.65183e-57 7.78421e-58 3.61788e-58 1.65859e-58 7.50102e-59 3.34697e-59 1.47361e-59 6.40224e-60 2.74391e-60 1.15725e-60 4.72699e-61 1.67569e-61 0 
0 2.92945e-83 1.21335e-82 4.69892e-82 1.79728e-81 6.81216e-81 2.55901e-80 9.52697e-80 3.51482e-79 1.28495e-78 4.65451e-78 1.67046e-77 5.93934e-77 2.09195e-76 7.29867e-76 2.52221e-75 8.63236e-75 2.92588e-74 9.82036e-74 3.26368e-73 1.07389e-72 3.49828e-72 1.1281e-71 3.60088e-71 1.13762e-70 3.55693e-70 1.10054e-69 3.36938e-69 1.02063e-68 3.05857e-68 9.06699e-68 2.65864e-67 7.71022e-67 2.21127e-66 6.27107e-66 1.75842e-65 4.87464e-65 1.33584e-64 3.61839e-64 9.68671e-64 2.56267e-63 6.69912e-63 1.73023e-62 4.41469e-62 1.11266e-61 2.76972e-61 6.80884e-61 1.65281e-60 3.96129e-60 9.3726e-60 2.18898e-59 5.04577e-59 1.1478e-58 2.57634e-58 5.70538e-58 1.2464e-57 2.68575e-57 5.7076e-57 1.1961e-56 2.47146e-56 5.03447e-56 1.01091e-55 2.00069e-55 3.90209e-55 7.49911e-55 1.41992e-54 2.64855e-54 4.86617e-54 8.80546e-54 1.5691e-53 2.75319e-53 4.75618e-53 8.0886e-53 1.35406e-52 2.23106e-52 3.61789e-52 5.77346e-52 9.06613e-52 1.40083e-51 2.12964e-51 3.18543e-51 4.68766e-51 6.78686e-51 9.66738e-51 1.35483e-50 1.86819e-50 2.53478e-50 3.38445e-50 4.44748e-50 5.75284e-50 7.32609e-50 9.18705e-50 1.13476e-49 1.38095e-49 1.65633e-49 1.95869e-49 2.28464e-49 2.62966e-49 2.98831e-49 3.35452e-49 3.72186e-49 4.0839e-49 4.43455e-49 4.76829e-49 5.08039e-49 5.36708e-49 5.62559e-49 5.85411e-49 6.05178e-49 6.21855e-49 6.35508e-49 6.46258e-49 6.5427e-49 6.59744e-49 6.629e-49 6.63972e-49 6.63203e-49 6.60832e-49 6.57096e-49 6.52223e-49 6.4643e-49 6.39923e-49 6.32894e-49 6.25528e-49 6.17997e-49 6.10468e-49 6.031e-49 5.96046e-49 5.89454e-49 5.83462e-49 5.78201e-49 5.73788e-49 5.70322e-49 5.6788e-49 5.66512e-49 5.66232e-49 5.67013e-49 5.68781e-49 5.71413e-49 5.74733e-49 5.78517e-49 5.82503e-49 5.86404e-49 5.89922e-49 5.92777e-49 5.94724e-49 5.95576e-49 5.95224e-49 5.93645e-49 5.90908e-49 5.87164e-49 5.82634e-49 5.77587e-49 5.72311e-49 5.6709e-49 5.62175e-49 5.57761e-49 5.5398e-49 5.50887e-49 5.48469e-49 5.46653e-49 5.45318e-49 5.4432e-49 5.43504e-49 5.42732e-49 5.4189e-49 5.40905e-49 5.39752e-49 5.38453e-49 5.37078e-49 5.35736e-49 5.34567e-49 5.3373e-49 5.33388e-49 5.33698e-49 5.348e-49 5.36805e-49 5.39786e-49 5.43781e-49 5.48782e-49 5.54737e-49 5.6155e-49 5.6908e-49 5.77134e-49 5.85471e-49 5.9379e-49 6.01732e-49 6.08877e-49 6.14749e-49 6.18822e-49 6.20541e-49 6.19348e-49 6.1471e-49 6.06158e-49 5.93331e-49 5.76006e-49 5.54135e-49 5.27863e-49 4.97534e-49 4.63685e-49 4.27019e-49 3.88371e-49 3.48653e-49 3.08803e-49 2.69729e-49 2.32256e-49 1.97085e-49 1.64763e-49 1.35666e-49 1.1e-49 8.78081e-50 6.8997e-50 5.33603e-50 4.06115e-50 3.04147e-50 2.24126e-50 1.625e-50 1.15918e-50 8.13539e-51 5.61743e-51 3.81621e-51 2.5508e-51 1.67758e-51 1.08561e-51 6.9131e-52 4.33222e-52 2.67189e-52 1.62192e-52 9.69138e-53 5.70064e-53 3.30132e-53 1.88244e-53 1.05699e-53 5.84497e-54 3.18352e-54 1.70803e-54 9.02808e-55 4.70176e-55 2.41292e-55 1.22038e-55 6.08375e-56 2.98967e-56 1.44846e-56 6.91947e-57 3.2597e-57 1.51452e-57 6.94089e-58 3.13802e-58 1.39974e-58 6.16078e-59 2.67576e-59 1.14643e-59 4.8336e-60 1.97381e-60 6.99552e-61 0 
0 1.13276e-82 4.69227e-82 1.8174e-81 6.95224e-81 2.63544e-80 9.90154e-80 3.68679e-79 1.36039e-78 4.97409e-78 1.80207e-77 6.46852e-77 2.3003e-76 8.10354e-76 2.82778e-75 9.77384e-75 3.34579e-74 1.13426e-73 3.8078e-73 1.26574e-72 4.16577e-72 1.35733e-71 4.37805e-71 1.3978e-70 4.4171e-70 1.38142e-69 4.2753e-69 1.30926e-68 3.96697e-68 1.18913e-67 3.52612e-67 1.03423e-66 3.00022e-66 8.60716e-66 2.44171e-65 6.84877e-65 1.8992e-64 5.20626e-64 1.41069e-63 3.77781e-63 9.99787e-63 2.61448e-62 6.75502e-62 1.72418e-61 4.34715e-61 1.08253e-60 2.66223e-60 6.46494e-60 1.55006e-59 3.66896e-59 8.57232e-59 1.97679e-58 4.49859e-58 1.01017e-57 2.23797e-57 4.89112e-57 1.05438e-56 2.24166e-56 4.69967e-56 9.71484e-56 1.97979e-55 3.97707e-55 7.87428e-55 1.53641e-54 2.95393e-54 5.59541e-54 1.04412e-53 1.91912e-53 3.47406e-53 6.19301e-53 1.08704e-52 1.87857e-52 3.1959e-52 5.35185e-52 8.82099e-52 1.43085e-51 2.28402e-51 3.58758e-51 5.54465e-51 8.43129e-51 1.26137e-50 1.85656e-50 2.68837e-50 3.82986e-50 5.36786e-50 7.40226e-50 1.00438e-49 1.34106e-49 1.76222e-49 2.27929e-49 2.90233e-49 3.63908e-49 4.49412e-49 5.46804e-49 6.55685e-49 7.75172e-49 9.039e-49 1.04006e-48 1.1815e-48 1.3258e-48 1.47042e-48 1.61281e-48 1.75059e-48 1.88158e-48 2.00395e-48 2.11623e-48 2.21735e-48 2.30663e-48 2.38377e-48 2.44876e-48 2.50189e-48 2.54364e-48 2.57469e-48 2.59583e-48 2.60792e-48 2.61188e-48 2.60867e-48 2.59923e-48 2.58447e-48 2.56528e-48 2.54252e-48 2.51698e-48 2.48942e-48 2.46054e-48 2.43103e-48 2.40153e-48 2.37267e-48 2.34505e-48 2.31923e-48 2.29577e-48 2.27517e-48 2.25789e-48 2.24432e-48 2.23477e-48 2.22943e-48 2.22835e-48 2.23143e-48 2.23838e-48 2.24872e-48 2.26176e-48 2.27662e-48 2.29228e-48 2.3076e-48 2.32143e-48 2.33265e-48 2.34031e-48 2.34368e-48 2.34232e-48 2.33614e-48 2.32543e-48 2.31076e-48 2.29301e-48 2.27323e-48 2.25257e-48 2.23212e-48 2.21288e-48 2.19561e-48 2.18083e-48 2.16875e-48 2.15932e-48 2.15225e-48 2.14706e-48 2.14318e-48 2.14001e-48 2.13699e-48 2.1337e-48 2.12983e-48 2.1253e-48 2.12018e-48 2.11476e-48 2.10947e-48 2.10485e-48 2.10153e-48 2.10016e-48 2.10135e-48 2.10565e-48 2.1135e-48 2.12518e-48 2.14085e-48 2.16047e-48 2.18385e-48 2.2106e-48 2.24018e-48 2.27185e-48 2.30464e-48 2.33741e-48 2.36873e-48 2.39697e-48 2.42025e-48 2.43652e-48 2.44359e-48 2.43926e-48 2.42141e-48 2.3882e-48 2.33817e-48 2.27043e-48 2.18477e-48 2.08173e-48 1.96264e-48 1.8296e-48 1.68537e-48 1.53322e-48 1.37676e-48 1.21969e-48 1.0656e-48 9.1774e-49 7.78908e-49 6.51272e-49 5.36333e-49 4.34915e-49 3.47206e-49 2.72842e-49 2.11016e-49 1.60603e-49 1.20277e-49 8.86285e-50 6.42548e-50 4.58316e-50 3.21621e-50 2.22047e-50 1.50825e-50 1.00795e-50 6.62764e-51 4.288e-51 2.72994e-51 1.71033e-51 1.05456e-51 6.39974e-52 3.82286e-52 2.24798e-52 1.30142e-52 7.41837e-53 4.164e-53 2.30183e-53 1.25327e-53 6.72163e-54 3.55154e-54 1.84893e-54 9.48509e-55 4.79546e-55 2.38969e-55 1.17389e-55 5.6852e-56 2.71486e-56 1.27846e-56 5.93769e-57 2.72016e-57 1.22934e-57 5.48151e-58 2.41173e-58 1.04708e-58 4.4846e-59 1.89014e-59 7.71588e-60 2.73394e-60 0 
0 4.32587e-82 1.79213e-81 6.94214e-81 2.656e-80 1.00698e-79 3.78384e-79 1.40911e-78 5.20029e-78 1.90173e-77 6.89099e-77 2.47395e-76 8.79931e-76 3.10042e-75 1.08212e-74 3.74094e-74 1.28086e-73 4.34319e-73 1.45835e-72 4.84878e-72 1.59618e-71 5.20203e-71 1.67831e-70 5.35974e-70 1.69414e-69 5.29967e-69 1.64062e-68 5.02556e-68 1.52314e-67 4.56706e-67 1.35467e-66 3.97453e-66 1.15333e-65 3.30977e-65 9.39229e-65 2.63532e-64 7.31034e-64 2.00466e-63 5.43373e-63 1.45567e-62 3.85378e-62 1.00815e-61 2.60573e-61 6.65352e-61 1.67819e-60 4.18071e-60 1.02855e-59 2.49874e-59 5.99354e-59 1.41925e-58 3.31739e-58 7.65319e-58 1.74239e-57 3.91425e-57 8.67559e-57 1.89689e-56 4.09094e-56 8.70134e-56 1.82505e-55 3.7743e-55 7.69506e-55 1.54649e-54 3.06328e-54 5.97962e-54 1.15015e-53 2.17957e-53 4.06887e-53 7.48182e-53 1.35494e-52 2.41634e-52 4.243e-52 7.33529e-52 1.24837e-51 2.09126e-51 3.448e-51 5.59479e-51 8.93349e-51 1.40361e-50 2.16987e-50 3.30032e-50 4.93854e-50 7.27022e-50 1.05292e-49 1.5002e-49 2.10287e-49 2.90005e-49 3.93511e-49 5.2542e-49 6.90406e-49 8.92924e-49 1.13688e-48 1.42527e-48 1.75984e-48 2.14076e-48 2.56639e-48 3.03321e-48 3.53579e-48 4.06703e-48 4.6184e-48 5.18043e-48 5.74316e-48 6.2967e-48 6.83171e-48 7.3398e-48 7.81389e-48 8.24835e-48 8.63915e-48 8.98377e-48 9.28109e-48 9.53124e-48 9.7354e-48 9.89556e-48 1.00144e-47 1.00949e-47 1.01406e-47 1.01549e-47 1.01417e-47 1.01045e-47 1.00468e-47 9.97216e-48 9.88375e-48 9.78467e-48 9.67782e-48 9.56595e-48 9.45167e-48 9.33747e-48 9.22575e-48 9.11881e-48 9.01889e-48 8.92809e-48 8.84839e-48 8.78154e-48 8.72906e-48 8.69213e-48 8.6715e-48 8.66739e-48 8.67941e-48 8.70643e-48 8.74658e-48 8.79721e-48 8.85491e-48 8.9157e-48 8.9752e-48 9.0289e-48 9.0725e-48 9.10229e-48 9.11543e-48 9.11024e-48 9.08639e-48 9.04491e-48 8.98812e-48 8.91939e-48 8.84282e-48 8.76282e-48 8.6837e-48 8.60926e-48 8.54251e-48 8.4854e-48 8.43878e-48 8.40244e-48 8.37521e-48 8.35527e-48 8.34037e-48 8.32819e-48 8.31659e-48 8.30384e-48 8.28884e-48 8.2712e-48 8.25129e-48 8.23017e-48 8.20952e-48 8.19149e-48 8.1785e-48 8.17306e-48 8.17757e-48 8.19416e-48 8.22451e-48 8.26978e-48 8.33051e-48 8.4066e-48 8.49729e-48 8.60114e-48 8.71602e-48 8.83906e-48 8.96661e-48 9.09417e-48 9.2163e-48 9.32665e-48 9.41798e-48 9.48229e-48 9.51107e-48 9.49573e-48 9.42803e-48 9.30069e-48 9.108e-48 8.84637e-48 8.51486e-48 8.1155e-48 7.65339e-48 7.13661e-48 6.57587e-48 5.98388e-48 5.37467e-48 4.76268e-48 4.16193e-48 3.58522e-48 3.04345e-48 2.54517e-48 2.0963e-48 1.7001e-48 1.35738e-48 1.06673e-48 8.25042e-49 6.27941e-49 4.70264e-49 3.4651e-49 2.51199e-49 1.79158e-49 1.25709e-49 8.6777e-50 5.89332e-50 3.93771e-50 2.58865e-50 1.67444e-50 1.06576e-50 6.67533e-51 4.11473e-51 2.49633e-51 1.49071e-51 8.76309e-52 5.0715e-52 2.88985e-52 1.62152e-52 8.9604e-53 4.87682e-53 2.61459e-53 1.38095e-53 7.18645e-54 3.68523e-54 1.86244e-54 9.27726e-55 4.55548e-55 2.20535e-55 1.0527e-55 4.95531e-56 2.30054e-56 1.0535e-56 4.75926e-57 2.12128e-57 9.32948e-58 4.04894e-58 1.73348e-58 7.30346e-59 2.98038e-59 1.05574e-59 0 
0 1.63701e-81 6.78264e-81 2.62774e-80 1.00549e-79 3.81272e-79 1.4329e-78 5.33699e-78 1.96993e-77 7.20521e-77 2.61129e-76 9.37655e-76 3.33566e-75 1.17554e-74 4.10373e-74 1.41897e-73 4.85945e-73 1.64811e-72 5.53527e-72 1.8408e-71 6.06121e-71 1.97586e-70 6.37625e-70 2.0368e-69 6.43971e-69 2.01504e-68 6.23969e-68 1.91189e-67 5.79624e-67 1.73849e-66 5.15821e-66 1.51387e-65 4.39436e-65 1.26148e-64 3.58095e-64 1.0051e-63 2.7891e-63 7.65105e-63 2.0746e-62 5.55979e-62 1.47247e-61 3.85346e-61 9.96377e-61 2.54517e-60 6.42215e-60 1.60054e-59 3.93934e-59 9.57414e-59 2.29745e-58 5.44261e-58 1.27272e-57 2.93745e-57 6.6906e-57 1.50371e-56 3.33433e-56 7.29373e-56 1.57372e-55 3.3488e-55 7.02714e-55 1.45391e-54 2.96561e-54 5.96276e-54 1.18164e-53 2.30764e-53 4.44062e-53 8.4189e-53 1.57235e-52 2.89248e-52 5.24043e-52 9.34945e-52 1.6424e-51 2.84049e-51 4.836e-51 8.1042e-51 1.33667e-50 2.16962e-50 3.46544e-50 5.44645e-50 8.42206e-50 1.2813e-49 1.91774e-49 2.82374e-49 4.09023e-49 5.82854e-49 8.1709e-49 1.12693e-48 1.5292e-48 2.04181e-48 2.68286e-48 3.46959e-48 4.41703e-48 5.53669e-48 6.83509e-48 8.31267e-48 9.96283e-48 1.17715e-47 1.37175e-47 1.57728e-47 1.79042e-47 2.00749e-47 2.2246e-47 2.43795e-47 2.64392e-47 2.8393e-47 3.02137e-47 3.18802e-47 3.33771e-47 3.46954e-47 3.58311e-47 3.67852e-47 3.75625e-47 3.81711e-47 3.86213e-47 3.89251e-47 3.90957e-47 3.91469e-47 3.90928e-47 3.89472e-47 3.87238e-47 3.84356e-47 3.80951e-47 3.7714e-47 3.73034e-47 3.68737e-47 3.64349e-47 3.59965e-47 3.55677e-47 3.51574e-47 3.4774e-47 3.44256e-47 3.41198e-47 3.38634e-47 3.36621e-47 3.35206e-47 3.34416e-47 3.34261e-47 3.34726e-47 3.35767e-47 3.37313e-47 3.39262e-47 3.41483e-47 3.43824e-47 3.46114e-47 3.48182e-47 3.49863e-47 3.51011e-47 3.5152e-47 3.51324e-47 3.5041e-47 3.48819e-47 3.46639e-47 3.44e-47 3.41061e-47 3.3799e-47 3.34954e-47 3.32099e-47 3.29541e-47 3.27353e-47 3.2557e-47 3.24181e-47 3.23143e-47 3.22383e-47 3.21817e-47 3.21353e-47 3.2091e-47 3.20421e-47 3.19844e-47 3.19164e-47 3.18395e-47 3.17579e-47 3.16781e-47 3.16082e-47 3.15578e-47 3.15364e-47 3.15534e-47 3.16168e-47 3.17332e-47 3.19071e-47 3.21405e-47 3.24331e-47 3.27819e-47 3.31816e-47 3.3624e-47 3.40982e-47 3.45901e-47 3.50827e-47 3.5555e-47 3.59828e-47 3.63383e-47 3.65905e-47 3.67068e-47 3.66539e-47 3.63999e-47 3.59164e-47 3.5181e-47 3.41795e-47 3.29079e-47 3.13736e-47 2.95959e-47 2.76058e-47 2.54442e-47 2.31603e-47 2.08082e-47 1.84437e-47 1.61212e-47 1.38905e-47 1.17939e-47 9.86471e-48 8.12619e-48 6.59121e-48 5.26299e-48 4.13634e-48 3.19932e-48 2.43504e-48 1.82357e-48 1.34362e-48 9.7398e-49 6.94587e-49 4.87305e-49 3.36337e-49 2.28378e-49 1.52565e-49 1.00274e-49 6.48457e-50 4.12628e-50 2.58376e-50 1.59218e-50 9.65648e-51 5.7646e-51 3.38755e-51 1.95981e-51 1.11634e-51 6.26156e-52 3.45877e-52 1.88176e-52 1.00846e-52 5.32428e-53 2.76963e-53 1.41969e-53 7.17188e-54 3.57102e-54 1.75278e-54 8.48184e-55 4.04704e-55 1.90425e-55 8.83695e-56 4.0451e-56 1.82665e-56 8.13838e-57 3.57785e-57 1.55215e-57 6.64264e-58 2.79758e-58 1.14122e-58 4.04146e-59 0 
0 6.13958e-81 2.54412e-80 9.85787e-80 3.77263e-79 1.43076e-78 5.37794e-78 2.00341e-77 7.396e-77 2.70564e-76 9.80745e-76 3.5223e-75 1.25328e-74 4.41765e-74 1.54249e-73 5.33468e-73 1.82733e-72 6.19889e-72 2.08241e-71 6.9269e-71 2.28137e-70 7.4388e-70 2.40117e-69 7.67221e-69 2.42637e-68 7.59445e-68 2.35233e-67 7.20985e-67 2.18645e-66 6.55992e-66 1.94699e-65 5.71598e-65 1.65975e-64 4.7662e-64 1.35345e-63 3.80017e-63 1.05491e-62 2.89488e-62 7.85246e-62 2.10521e-61 5.57765e-61 1.46025e-60 3.77723e-60 9.65259e-60 2.43662e-59 6.07514e-59 1.49589e-58 3.63717e-58 8.73171e-58 2.06945e-57 4.84145e-57 1.11792e-56 2.54744e-56 5.72799e-56 1.27072e-55 2.78096e-55 6.00314e-55 1.27804e-54 2.68312e-54 5.55401e-54 1.13341e-53 2.27997e-53 4.52033e-53 8.83199e-53 1.70034e-52 3.22514e-52 6.02616e-52 1.10907e-51 2.01023e-51 3.588e-51 6.30563e-51 1.09099e-50 1.85818e-50 3.11514e-50 5.13983e-50 8.34569e-50 1.33346e-49 2.09637e-49 3.24262e-49 4.93449e-49 7.38726e-49 1.08795e-48 1.57619e-48 2.24638e-48 3.1495e-48 4.34412e-48 5.89506e-48 7.87121e-48 1.03421e-47 1.33739e-47 1.7024e-47 2.13361e-47 2.63345e-47 3.20199e-47 3.83657e-47 4.53169e-47 5.27901e-47 6.0677e-47 6.88486e-47 7.71625e-47 8.54698e-47 9.36238e-47 1.01486e-46 1.08935e-46 1.15868e-46 1.22205e-46 1.27889e-46 1.32887e-46 1.37187e-46 1.40793e-46 1.43725e-46 1.46016e-46 1.47706e-46 1.48841e-46 1.49471e-46 1.4965e-46 1.49431e-46 1.48866e-46 1.48007e-46 1.46904e-46 1.45603e-46 1.44149e-46 1.42584e-46 1.40948e-46 1.39277e-46 1.37608e-46 1.35976e-46 1.34415e-46 1.32956e-46 1.31631e-46 1.30467e-46 1.29492e-46 1.28727e-46 1.28189e-46 1.27889e-46 1.27832e-46 1.2801e-46 1.28408e-46 1.28998e-46 1.29742e-46 1.3059e-46 1.31483e-46 1.32358e-46 1.33148e-46 1.3379e-46 1.34229e-46 1.34425e-46 1.34351e-46 1.34004e-46 1.33399e-46 1.32569e-46 1.31564e-46 1.30445e-46 1.29277e-46 1.28121e-46 1.27036e-46 1.26063e-46 1.25233e-46 1.24556e-46 1.2403e-46 1.23637e-46 1.23351e-46 1.23137e-46 1.22962e-46 1.22794e-46 1.22608e-46 1.22388e-46 1.22128e-46 1.21834e-46 1.21521e-46 1.21215e-46 1.20947e-46 1.20753e-46 1.2067e-46 1.20732e-46 1.20973e-46 1.21416e-46 1.22078e-46 1.22967e-46 1.24083e-46 1.25414e-46 1.2694e-46 1.2863e-46 1.30442e-46 1.32324e-46 1.3421e-46 1.36022e-46 1.37668e-46 1.39041e-46 1.40023e-46 1.4049e-46 1.40313e-46 1.3937e-46 1.37552e-46 1.34771e-46 1.30971e-46 1.26136e-46 1.20292e-46 1.13512e-46 1.05912e-46 9.76493e-47 8.8911e-47 7.99045e-47 7.08443e-47 6.19394e-47 5.33813e-47 4.53337e-47 3.79255e-47 3.12467e-47 2.53477e-47 2.02419e-47 1.59099e-47 1.23063e-47 9.36662e-48 7.01443e-48 5.16806e-48 3.746e-48 2.67116e-48 1.87378e-48 1.29308e-48 8.77862e-49 5.86321e-49 3.85275e-49 2.4909e-49 1.58459e-49 9.91936e-50 6.11071e-50 3.70491e-50 2.21096e-50 1.29881e-50 7.5113e-51 4.27696e-51 2.39803e-51 1.3241e-51 7.20095e-52 3.85752e-52 2.03577e-52 1.05854e-52 5.42372e-53 2.73874e-53 1.36309e-53 6.68762e-54 3.23481e-54 1.5428e-54 7.25619e-55 3.36591e-55 1.54008e-55 6.95164e-56 3.09589e-56 1.36047e-56 5.89957e-57 2.52378e-57 1.06248e-57 4.3326e-58 1.53388e-58 0 
0 2.28197e-80 9.45723e-80 3.66499e-79 1.40282e-78 5.32098e-78 2.00038e-77 7.45315e-77 2.75197e-76 1.00692e-75 3.6506e-75 1.31135e-74 4.66689e-74 1.64535e-73 5.74622e-73 1.98776e-72 6.81036e-72 2.31083e-71 7.76468e-71 2.58346e-70 8.51077e-70 2.7758e-69 8.9624e-69 2.86444e-68 9.06147e-68 2.83702e-67 8.79009e-67 2.69496e-66 8.17523e-66 2.45356e-65 7.28453e-65 2.13931e-64 6.21402e-64 1.78507e-63 5.0708e-63 1.42428e-62 3.95519e-62 1.0858e-61 2.94639e-61 7.90225e-61 2.0945e-60 5.48571e-60 1.41958e-59 3.62922e-59 9.16522e-59 2.28613e-58 5.63163e-58 1.36991e-57 3.29023e-57 7.80154e-57 1.82601e-56 4.21834e-56 9.61704e-56 2.16345e-55 4.80182e-55 1.05138e-54 2.27068e-54 4.83655e-54 1.01589e-53 2.1039e-53 4.29556e-53 8.64517e-53 1.71486e-52 3.35219e-52 6.45678e-52 1.22528e-51 2.29052e-51 4.21749e-51 7.64788e-51 1.36566e-50 2.4011e-50 4.15613e-50 7.08163e-50 1.18767e-49 1.96035e-49 3.18423e-49 5.08945e-49 8.00383e-49 1.23839e-48 1.88504e-48 2.82272e-48 4.15801e-48 6.02512e-48 8.5883e-48 1.20425e-47 1.66116e-47 2.25434e-47 3.01006e-47 3.95484e-47 5.1138e-47 6.50874e-47 8.15605e-47 1.00648e-46 1.22347e-46 1.46552e-46 1.73049e-46 2.01515e-46 2.3153e-46 2.62601e-46 2.9418e-46 3.257e-46 3.56601e-46 3.86361e-46 4.14517e-46 4.40686e-46 4.6457e-46 4.85964e-46 5.04746e-46 5.20877e-46 5.34382e-46 5.45344e-46 5.53887e-46 5.60167e-46 5.64363e-46 5.66666e-46 5.67276e-46 5.66395e-46 5.6422e-46 5.60946e-46 5.56757e-46 5.5183e-46 5.46331e-46 5.40416e-46 5.34234e-46 5.27926e-46 5.21628e-46 5.1547e-46 5.09579e-46 5.04075e-46 4.99076e-46 4.94688e-46 4.9101e-46 4.88124e-46 4.86097e-46 4.8497e-46 4.84756e-46 4.85433e-46 4.86941e-46 4.89177e-46 4.91993e-46 4.95203e-46 4.98586e-46 5.01897e-46 5.04889e-46 5.07322e-46 5.08989e-46 5.09733e-46 5.0946e-46 5.08153e-46 5.05869e-46 5.02737e-46 4.98946e-46 4.94722e-46 4.90311e-46 4.85953e-46 4.81859e-46 4.78195e-46 4.75067e-46 4.72523e-46 4.70547e-46 4.69075e-46 4.68002e-46 4.67203e-46 4.66549e-46 4.65919e-46 4.65218e-46 4.64385e-46 4.634e-46 4.62283e-46 4.61095e-46 4.5993e-46 4.58909e-46 4.58168e-46 4.57846e-46 4.58078e-46 4.58982e-46 4.60652e-46 4.63152e-46 4.66515e-46 4.70734e-46 4.7577e-46 4.81545e-46 4.87945e-46 4.94814e-46 5.01955e-46 5.09122e-46 5.16019e-46 5.22299e-46 5.27559e-46 5.31356e-46 5.33214e-46 5.32648e-46 5.29189e-46 5.22417e-46 5.11997e-46 4.97711e-46 4.79487e-46 4.57421e-46 4.3178e-46 4.03005e-46 3.71687e-46 3.38534e-46 3.04334e-46 2.69904e-46 2.36042e-46 2.03479e-46 1.72842e-46 1.44625e-46 1.19176e-46 9.66909e-47 7.72227e-47 6.07009e-47 4.69543e-47 3.57385e-47 2.67632e-47 1.97176e-47 1.42909e-47 1.01893e-47 7.14669e-48 4.93106e-48 3.34703e-48 2.23499e-48 1.46828e-48 9.4903e-49 6.03557e-49 3.77707e-49 2.32608e-49 1.40982e-49 8.41039e-50 4.9388e-50 2.85513e-50 1.62509e-50 9.108e-51 5.02705e-51 2.73274e-51 1.4633e-51 7.71912e-52 4.01197e-52 2.05473e-52 1.03709e-52 5.15939e-53 2.53019e-53 1.22331e-53 5.83181e-54 2.74163e-54 1.27119e-54 5.8138e-55 2.62309e-55 1.16768e-55 5.12907e-56 2.22323e-56 9.50673e-57 4.00057e-57 1.63074e-57 5.77164e-58 0 
0 8.40496e-80 3.48375e-79 1.35027e-78 5.16914e-78 1.96102e-77 7.37354e-77 2.74777e-76 1.01476e-75 3.71361e-75 1.34663e-74 4.83826e-74 1.72222e-73 6.07313e-73 2.12144e-72 7.34023e-72 2.51546e-71 8.53727e-71 2.86934e-70 9.54927e-70 3.14666e-69 1.02656e-68 3.31543e-68 1.05993e-67 3.354e-67 1.0504e-66 3.2555e-66 9.98418e-66 3.02969e-65 9.09573e-65 2.70139e-64 7.93614e-64 2.306e-63 6.6267e-63 1.88312e-62 5.29127e-62 1.46994e-61 4.0369e-61 1.09588e-60 2.94035e-60 7.79664e-60 2.04288e-59 5.28878e-59 1.35269e-58 3.41759e-58 8.52848e-58 2.10186e-57 5.11521e-57 1.22914e-56 2.91582e-56 6.82798e-56 1.57813e-55 3.5996e-55 8.10168e-55 1.79908e-54 3.94115e-54 8.51604e-54 1.81484e-53 3.81389e-53 7.90259e-53 1.61431e-52 3.25058e-52 6.45114e-52 1.2617e-51 2.43143e-51 4.61635e-51 8.63395e-51 1.59052e-50 2.88558e-50 5.15512e-50 9.06782e-50 1.57027e-49 2.67674e-49 4.49105e-49 7.41579e-49 1.20502e-48 1.9267e-48 3.03101e-48 4.69115e-48 7.14276e-48 1.06986e-47 1.57631e-47 2.28458e-47 3.25699e-47 4.56752e-47 6.30106e-47 8.55147e-47 1.14182e-46 1.50016e-46 1.93963e-46 2.46842e-46 3.09265e-46 3.8156e-46 4.63706e-46 5.55284e-46 6.5546e-46 7.62993e-46 8.76281e-46 9.93436e-46 1.11238e-45 1.23097e-45 1.34708e-45 1.45876e-45 1.56427e-45 1.66219e-45 1.75142e-45 1.83122e-45 1.90117e-45 1.96113e-45 2.01125e-45 2.05184e-45 2.08339e-45 2.1065e-45 2.12185e-45 2.13017e-45 2.13219e-45 2.12868e-45 2.12037e-45 2.10799e-45 2.09222e-45 2.07371e-45 2.05308e-45 2.03091e-45 2.00776e-45 1.98415e-45 1.96058e-45 1.93754e-45 1.9155e-45 1.89491e-45 1.87621e-45 1.85981e-45 1.84605e-45 1.83527e-45 1.82769e-45 1.82349e-45 1.8227e-45 1.82526e-45 1.83093e-45 1.83932e-45 1.84989e-45 1.86194e-45 1.87464e-45 1.88707e-45 1.89831e-45 1.90745e-45 1.91372e-45 1.91653e-45 1.91553e-45 1.91065e-45 1.90211e-45 1.89039e-45 1.8762e-45 1.86039e-45 1.84388e-45 1.82758e-45 1.81228e-45 1.79858e-45 1.78691e-45 1.77742e-45 1.77007e-45 1.76459e-45 1.76062e-45 1.75766e-45 1.75523e-45 1.75289e-45 1.75027e-45 1.74714e-45 1.74344e-45 1.73923e-45 1.73476e-45 1.73037e-45 1.72651e-45 1.72371e-45 1.72247e-45 1.72332e-45 1.72669e-45 1.73293e-45 1.7423e-45 1.7549e-45 1.77072e-45 1.78961e-45 1.81129e-45 1.83533e-45 1.86115e-45 1.88802e-45 1.91503e-45 1.94107e-45 1.96485e-45 1.98485e-45 1.99942e-45 2.00676e-45 2.00505e-45 1.99251e-45 1.96754e-45 1.92886e-45 1.87564e-45 1.80756e-45 1.72496e-45 1.62884e-45 1.52082e-45 1.40311e-45 1.27839e-45 1.14961e-45 1.01987e-45 8.92167e-46 7.69289e-46 6.53612e-46 5.47023e-46 4.50846e-46 3.65836e-46 2.9221e-46 2.2971e-46 1.77697e-46 1.35253e-46 1.01284e-46 7.46167e-47 5.40763e-47 3.85517e-47 2.7036e-47 1.86511e-47 1.26572e-47 8.44999e-48 5.54985e-48 3.58621e-48 2.28006e-48 1.42642e-48 8.78157e-49 5.3206e-49 3.17288e-49 1.86249e-49 1.07629e-49 6.12354e-50 3.43058e-50 1.89266e-50 1.02842e-50 5.50444e-51 2.90238e-51 1.50781e-51 7.71877e-52 3.89414e-52 1.93639e-52 9.49174e-53 4.587e-53 2.18572e-53 1.02707e-53 4.75996e-54 2.17598e-54 9.81319e-55 4.36641e-55 1.9171e-55 8.30614e-56 3.55023e-56 1.49335e-56 6.08493e-57 2.15296e-57 0 
0 3.06752e-79 1.27162e-78 4.92947e-78 1.88742e-77 7.16151e-77 2.69324e-76 1.00383e-75 3.70786e-75 1.35719e-74 4.92243e-74 1.76893e-73 6.29798e-73 2.22137e-72 7.76135e-72 2.68607e-71 9.20724e-71 3.12564e-70 1.05078e-69 3.49794e-69 1.15295e-68 3.76239e-68 1.21546e-67 3.88693e-67 1.23033e-66 3.8543e-66 1.19494e-65 3.66588e-65 1.11278e-64 3.3419e-64 9.92873e-64 2.91789e-63 8.48156e-63 2.43823e-62 6.93137e-62 1.94836e-61 5.41474e-61 1.48765e-60 4.04013e-60 1.08446e-59 2.87678e-59 7.54101e-59 1.95314e-58 4.99771e-58 1.26326e-57 3.15388e-57 7.77646e-57 1.89343e-56 4.55194e-56 1.08036e-55 2.53115e-55 5.85308e-55 1.33573e-54 3.00788e-54 6.68282e-54 1.46473e-53 3.16665e-53 6.75194e-53 1.41967e-52 2.94319e-52 6.0154e-52 1.21191e-51 2.40643e-51 4.7089e-51 9.07929e-51 1.72469e-50 3.22734e-50 5.9483e-50 1.0797e-49 1.92983e-49 3.39616e-49 5.88383e-49 1.00342e-48 1.68428e-48 2.7823e-48 4.52282e-48 7.23423e-48 1.13846e-47 1.76258e-47 2.68451e-47 4.02198e-47 5.92732e-47 8.59233e-47 1.22516e-46 1.71836e-46 2.37076e-46 3.21763e-46 4.29634e-46 5.64446e-46 7.29741e-46 9.2857e-46 1.16319e-45 1.43479e-45 1.74323e-45 2.08686e-45 2.46247e-45 2.86534e-45 3.28937e-45 3.72743e-45 4.17169e-45 4.61405e-45 5.04662e-45 5.46208e-45 5.85403e-45 6.2172e-45 6.54762e-45 6.84261e-45 7.10071e-45 7.32158e-45 7.50578e-45 7.65464e-45 7.77003e-45 7.85424e-45 7.90981e-45 7.93945e-45 7.94595e-45 7.93209e-45 7.9006e-45 7.85413e-45 7.79522e-45 7.72627e-45 7.64954e-45 7.56718e-45 7.48122e-45 7.39358e-45 7.30614e-45 7.22067e-45 7.13893e-45 7.06259e-45 6.99326e-45 6.93242e-45 6.88143e-45 6.84146e-45 6.81341e-45 6.79786e-45 6.79501e-45 6.80457e-45 6.82568e-45 6.85693e-45 6.89628e-45 6.94113e-45 6.98839e-45 7.03468e-45 7.07652e-45 7.11058e-45 7.13398e-45 7.14451e-45 7.14087e-45 7.12281e-45 7.09113e-45 7.04765e-45 6.99498e-45 6.93632e-45 6.8751e-45 6.81464e-45 6.75791e-45 6.70719e-45 6.66398e-45 6.62891e-45 6.60177e-45 6.58161e-45 6.56699e-45 6.55613e-45 6.54722e-45 6.53857e-45 6.52886e-45 6.51724e-45 6.50344e-45 6.48774e-45 6.47102e-45 6.4546e-45 6.44017e-45 6.42963e-45 6.42495e-45 6.42801e-45 6.44045e-45 6.46361e-45 6.49838e-45 6.54521e-45 6.60404e-45 6.67432e-45 6.75502e-45 6.84455e-45 6.94081e-45 7.04109e-45 7.14203e-45 7.23956e-45 7.32884e-45 7.40433e-45 7.45981e-45 7.48861e-45 7.48389e-45 7.43897e-45 7.34785e-45 7.20567e-45 7.00916e-45 6.75713e-45 6.4507e-45 6.09347e-45 5.69146e-45 5.25286e-45 4.78762e-45 4.3068e-45 3.82195e-45 3.3444e-45 2.88456e-45 2.45142e-45 2.05209e-45 1.69161e-45 1.37285e-45 1.09669e-45 8.62195e-46 6.67003e-46 5.07693e-46 3.80179e-46 2.80064e-46 2.02951e-46 1.4467e-46 1.01441e-46 6.99674e-47 4.74723e-47 3.16853e-47 2.08051e-47 1.34401e-47 8.54241e-48 5.34244e-48 3.28787e-48 1.99134e-48 1.18706e-48 6.96532e-49 4.02344e-49 2.28817e-49 1.28135e-49 7.0661e-50 3.8378e-50 2.05317e-50 1.0821e-50 5.61896e-51 2.87509e-51 1.4498e-51 7.20579e-52 3.53043e-52 1.70531e-52 8.12197e-53 3.8147e-53 1.76708e-53 8.07424e-54 3.6396e-54 1.61869e-54 7.10371e-55 3.07638e-55 1.31432e-55 5.52607e-56 2.25078e-56 7.96114e-57 0 