# vtk DataFile Version 3.0
Gray-Scott Simulation Output
ASCII
DATASET STRUCTURED_POINTS
DIMENSIONS 256 256 1
SPACING 1.0 1.0 1.0
ORIGIN 0 0 0
POINT_DATA 65536
SCALARS u double
LOOKUP_TABLE default
0 0 0 0 0 0 0 0 0 0 0 0 0 0 0 0 0 0 0 0 0 0 0 0 0 0 0 0 0 0 0 0 0 0 0 0 0 0 0 0 0 0 0 0 0 0 0 0 0 0 0 0 0 0 0 0 0 0 0 0 0 0 0 0 0 0 0 0 0 0 0 0 0 0 0 0 0 0 0 0 0 0 0 0 0 0 0 0 0 0 0 0 0 0 0 0 0 0 0 0 0 0 0 0 0 0 0 0 0 0 0 0 0 0 0 0 0 0 0 0 0 0 0 0 0 0 0 0 0 0 0 0 0 0 0 0 0 0 0 0 0 0 0 0 0 0 0 0 0 0 0 0 0 0 0 0 0 0 0 0 0 0 0 0 0 0 0 0 0 0 0 0 0 0 0 0 0 0 0 0 0 0 0 0 0 0 0 0 0 0 0 0 0 0 0 0 0 0 0 0 0 0 0 0 0 0 0 0 0 0 0 0 0 0 0 0 0 0 0 0 0 0 0 0 0 0 0 0 0 0 0 0 0 0 0 0 0 0 0 0 0 0 0 0 0 0 0 0 0 0 0 0 0 0 0 0 
0 1.36496e-271 1.03588e-269 7.75531e-268 5.72822e-266 4.17378e-264 2.99977e-262 2.12642e-260 1.48652e-258 1.02473e-256 6.96485e-255 4.66698e-253 3.0827e-251 2.007e-249 1.28775e-247 8.14205e-246 5.07222e-244 3.11293e-242 1.88187e-240 1.12048e-238 6.56973e-237 3.79282e-235 2.15567e-233 1.20599e-231 6.6402e-230 3.59769e-228 1.91779e-226 1.00564e-224 5.18643e-223 2.6303e-221 1.31152e-219 6.42827e-218 3.09655e-216 1.46569e-214 6.81545e-213 3.11275e-211 1.39603e-209 6.14684e-208 2.6565e-206 1.12659e-204 4.68717e-203 1.91264e-201 7.65273e-200 3.00152e-198 1.15368e-196 4.34424e-195 1.60214e-193 5.78497e-192 2.04444e-190 7.06923e-189 2.39077e-187 7.90511e-186 2.55457e-184 8.06472e-183 2.48623e-181 7.48141e-180 2.19642e-178 6.28827e-177 1.75473e-175 4.77011e-174 1.26254e-172 3.25168e-171 8.14435e-170 1.9825e-168 4.68688e-167 1.07538e-165 2.39292e-164 5.15978e-163 1.07724e-161 2.17563e-160 4.24659e-159 8.00279e-158 1.45453e-156 2.54677e-155 4.29051e-154 6.9456e-153 1.07889e-151 1.60565e-150 2.28567e-149 3.10661e-148 4.02369e-147 4.95566e-146 5.79034e-145 6.402e-144 6.67886e-143 6.55375e-142 6.02763e-141 5.17544e-140 4.12993e-139 3.04729e-138 2.06686e-137 1.27993e-136 7.17967e-136 3.61419e-135 1.61473e-134 6.31859e-134 2.1315e-133 6.08316e-133 1.43768e-132 2.75446e-132 4.227e-132 5.29119e-132 5.76956e-132 5.86144e-132 5.73661e-132 5.7524e-132 6.30788e-132 7.46195e-132 8.56864e-132 8.95263e-132 8.65258e-132 8.29401e-132 8.45839e-132 8.99538e-132 9.27472e-132 9.04451e-132 8.62858e-132 8.3892e-132 8.03394e-132 7.29893e-132 6.54304e-132 6.39493e-132 6.95277e-132 7.72274e-132 8.16008e-132 7.93167e-132 7.2203e-132 6.36669e-132 5.53775e-132 5.04404e-132 5.10612e-132 5.48669e-132 5.87486e-132 6.36403e-132 6.78867e-132 6.67482e-132 5.98441e-132 5.07682e-132 4.30694e-132 4.07974e-132 4.52886e-132 5.41078e-132 6.26632e-132 6.73568e-132 7.07458e-132 7.5894e-132 8.18651e-132 8.61604e-132 8.67008e-132 8.38173e-132 7.93228e-132 7.22974e-132 6.22196e-132 5.07256e-132 4.22518e-132 3.85711e-132 3.86272e-132 4.33899e-132 5.30552e-132 6.28115e-132 6.73755e-132 6.58196e-132 5.9153e-132 5.19056e-132 5.04891e-132 5.65247e-132 6.39635e-132 6.49926e-132 5.88648e-132 5.25659e-132 5.18618e-132 5.47138e-132 5.56686e-132 5.32687e-132 4.9445e-132 4.48022e-132 4.16674e-132 4.26473e-132 4.618e-132 5.06199e-132 5.94266e-132 7.10976e-132 7.70514e-132 7.29258e-132 6.20922e-132 5.27923e-132 5.28408e-132 6.23879e-132 7.31994e-132 7.7646e-132 7.74036e-132 7.94313e-132 8.70031e-132 9.61547e-132 1.01593e-131 1.02253e-131 9.89657e-132 9.17475e-132 8.16911e-132 6.97697e-132 5.35057e-132 3.4106e-132 1.75775e-132 7.37791e-133 2.57075e-133 7.58902e-134 1.93307e-134 4.31527e-135 8.55342e-136 1.52196e-136 2.45366e-137 3.61234e-138 4.88945e-139 6.12016e-140 7.12043e-141 7.73453e-142 7.87523e-143 7.54264e-144 6.81683e-145 5.83005e-146 4.73051e-147 3.65005e-148 2.68393e-149 1.88437e-150 1.2655e-151 8.14283e-153 5.02766e-154 2.98296e-155 1.7029e-156 9.36534e-158 4.9676e-159 2.54403e-160 1.25917e-161 6.02901e-163 2.79505e-164 1.25568e-165 5.47086e-167 2.31337e-168 9.50069e-170 3.79207e-171 1.47193e-172 5.55964e-174 2.0446e-175 7.32507e-177 2.5579e-178 8.71042e-180 2.89394e-181 9.38492e-183 2.97204e-184 9.19486e-186 2.7802e-187 8.2189e-189 2.37641e-190 6.72288e-192 1.86016e-193 0 
0 1.03579e-269 7.83504e-268 5.84673e-266 4.30449e-264 3.12625e-262 2.23964e-260 1.5825e-258 1.10273e-256 7.57735e-255 5.13377e-253 3.4291e-251 2.25787e-249 1.46536e-247 9.37264e-246 5.90747e-244 3.66866e-242 2.24453e-240 1.35269e-238 8.02905e-237 4.69319e-235 2.70113e-233 1.5305e-231 8.53625e-230 4.68576e-228 2.53106e-226 1.34513e-224 7.03222e-223 3.61587e-221 1.8283e-219 9.08901e-218 4.44161e-216 2.13321e-214 1.00672e-212 4.66744e-211 2.12544e-209 9.50442e-208 4.17263e-206 1.79804e-204 7.60313e-203 3.15412e-201 1.28335e-199 5.12007e-198 2.00241e-196 7.6745e-195 2.88164e-193 1.05971e-191 3.81555e-190 1.34463e-188 4.63632e-187 1.56357e-185 5.15549e-184 1.66136e-182 5.2303e-181 1.60795e-179 4.82515e-178 1.41268e-176 4.03333e-175 1.12241e-173 3.04285e-172 8.03179e-171 2.06298e-169 5.15307e-168 1.25097e-166 2.94951e-165 6.74939e-164 1.49784e-162 3.22116e-161 6.70716e-160 1.35102e-158 2.63008e-157 4.94341e-156 8.96128e-155 1.56495e-153 2.6296e-152 4.24584e-151 6.57824e-150 9.76485e-149 1.38648e-147 1.87965e-146 2.42835e-145 2.98325e-144 3.47695e-143 3.83462e-142 3.99049e-141 3.90605e-140 3.58365e-139 3.06949e-138 2.44348e-137 1.79862e-136 1.21704e-135 7.51911e-135 4.20808e-134 2.11356e-133 9.42221e-133 3.67927e-132 1.23871e-131 3.52881e-131 8.32701e-131 1.59354e-130 2.44396e-130 3.05918e-130 3.33648e-130 3.39011e-130 3.31884e-130 3.3292e-130 3.65116e-130 4.31778e-130 4.95673e-130 5.17888e-130 5.00631e-130 4.79983e-130 4.89461e-130 5.20423e-130 5.36569e-130 5.23343e-130 4.99353e-130 4.85404e-130 4.64746e-130 4.22264e-130 3.78658e-130 3.70119e-130 4.02301e-130 4.46741e-130 4.71966e-130 4.58774e-130 4.1766e-130 3.68276e-130 3.20368e-130 2.91856e-130 2.95409e-130 3.17371e-130 3.39861e-130 3.6813e-130 3.92589e-130 3.85984e-130 3.46112e-130 2.93688e-130 2.49255e-130 2.36156e-130 2.62097e-130 3.13027e-130 3.62442e-130 3.89646e-130 4.09321e-130 4.39108e-130 4.73637e-130 4.98472e-130 5.01612e-130 4.84953e-130 4.58902e-130 4.18215e-130 3.59918e-130 2.93495e-130 2.44482e-130 2.23139e-130 2.23478e-130 2.51046e-130 3.06872e-130 3.63223e-130 3.89633e-130 3.80665e-130 3.42189e-130 3.00383e-130 2.92204e-130 3.26982e-130 3.6986e-130 3.7582e-130 3.40535e-130 3.04218e-130 3.00084e-130 3.16455e-130 3.21955e-130 3.08117e-130 2.85994e-130 2.59177e-130 2.41115e-130 2.4678e-130 2.67216e-130 2.93016e-130 3.43949e-130 4.11269e-130 4.45591e-130 4.2176e-130 3.59231e-130 3.05583e-130 3.05866e-130 3.60922e-130 4.23308e-130 4.4907e-130 4.47817e-130 4.59633e-130 5.03392e-130 5.56277e-130 5.87765e-130 5.91629e-130 5.72623e-130 5.30881e-130 4.72699e-130 4.03637e-130 3.09537e-130 1.97417e-130 1.01858e-130 4.28183e-131 1.49462e-131 4.42087e-132 1.12843e-132 2.52453e-133 5.01515e-134 8.94421e-135 1.44532e-135 2.13288e-136 2.89386e-137 3.63102e-138 4.23477e-139 4.6113e-140 4.7068e-141 4.51924e-142 4.09459e-143 3.51068e-144 2.85577e-145 2.20911e-146 1.62853e-147 1.14631e-148 7.71817e-150 4.97906e-151 3.08221e-152 1.83347e-153 1.04942e-154 5.78656e-156 3.0774e-157 1.58017e-158 7.84183e-160 3.76471e-161 1.74997e-162 7.8828e-164 3.44368e-165 1.46009e-166 6.0126e-168 2.40636e-169 9.36588e-171 3.54726e-172 1.3081e-173 4.69933e-175 1.64551e-176 5.61895e-178 1.872e-179 6.08772e-181 1.93325e-182 5.99779e-184 1.81861e-185 5.39135e-187 1.56326e-188 4.43498e-190 1.2306e-191 0 
0 7.75395e-268 5.84622e-266 4.34845e-264 3.19105e-262 2.31011e-260 1.64964e-258 1.16187e-256 8.07042e-255 5.52787e-253 3.73333e-251 2.48579e-249 1.63159e-247 1.05557e-245 6.73043e-244 4.22886e-242 2.61804e-240 1.59677e-238 9.59332e-237 5.67669e-235 3.30797e-233 1.89804e-231 1.07217e-229 5.96176e-228 3.26262e-226 1.75701e-224 9.30942e-223 4.85225e-221 2.48748e-219 1.25399e-217 6.21538e-216 3.0283e-214 1.45012e-212 6.82334e-211 3.15418e-209 1.43212e-207 6.38536e-206 2.79513e-204 1.20096e-202 5.0636e-201 2.09454e-199 8.49771e-198 3.38053e-196 1.31831e-194 5.03817e-193 1.88636e-191 6.91736e-190 2.48359e-188 8.72766e-187 3.00087e-185 1.00919e-183 3.31826e-182 1.06633e-180 3.34771e-179 1.02634e-177 3.07134e-176 8.96736e-175 2.55324e-173 7.08583e-172 1.91573e-170 5.04295e-169 1.29178e-167 3.218e-166 7.79109e-165 1.83203e-163 4.18104e-162 9.25394e-161 1.9848e-159 4.12185e-158 8.28069e-157 1.6078e-155 3.01404e-154 5.44949e-153 9.49194e-152 1.5908e-150 2.56192e-149 3.95906e-148 5.86182e-147 8.30175e-146 1.12261e-144 1.44664e-143 1.77272e-142 2.06091e-141 2.26724e-140 2.35354e-139 2.29806e-138 2.10321e-137 1.79707e-136 1.42712e-135 1.04797e-134 7.07439e-134 4.3605e-133 2.43477e-132 1.22015e-131 5.42758e-131 2.11498e-130 7.10652e-130 2.02086e-129 4.76134e-129 9.10131e-129 1.39499e-128 1.74612e-128 1.9048e-128 1.93571e-128 1.89555e-128 1.90216e-128 2.08638e-128 2.46653e-128 2.83072e-128 2.95759e-128 2.85961e-128 2.74223e-128 2.79618e-128 2.97242e-128 3.06456e-128 2.98955e-128 2.85294e-128 2.7727e-128 2.65411e-128 2.41171e-128 2.16337e-128 2.11477e-128 2.29806e-128 2.55127e-128 2.69491e-128 2.61968e-128 2.3851e-128 2.10305e-128 1.8297e-128 1.66714e-128 1.68721e-128 1.81234e-128 1.94098e-128 2.10226e-128 2.24134e-128 2.20351e-128 1.97619e-128 1.67725e-128 1.42408e-128 1.34952e-128 1.49744e-128 1.7878e-128 2.06958e-128 2.22523e-128 2.338e-128 2.50815e-128 2.70527e-128 2.84703e-128 2.86504e-128 2.77002e-128 2.62094e-128 2.38832e-128 2.0554e-128 1.67644e-128 1.39657e-128 1.27439e-128 1.27641e-128 1.43394e-128 1.75227e-128 2.07359e-128 2.22447e-128 2.17344e-128 1.95421e-128 1.71613e-128 1.66951e-128 1.86734e-128 2.11134e-128 2.14542e-128 1.94484e-128 1.73812e-128 1.71417e-128 1.80694e-128 1.83821e-128 1.75945e-128 1.63308e-128 1.48016e-128 1.37742e-128 1.40975e-128 1.52647e-128 1.67446e-128 1.96527e-128 2.34863e-128 2.54395e-128 2.40805e-128 2.05176e-128 1.74623e-128 1.74785e-128 2.0613e-128 2.41669e-128 2.56403e-128 2.55773e-128 2.6257e-128 2.87537e-128 3.17708e-128 3.35708e-128 3.37942e-128 3.27093e-128 3.03262e-128 2.7003e-128 2.30533e-128 1.76784e-128 1.12812e-128 5.82704e-129 2.45323e-129 8.57848e-130 2.54235e-130 6.50289e-131 1.45798e-131 2.90286e-132 5.1889e-133 8.40442e-134 1.24318e-134 1.69075e-135 2.12655e-136 2.48618e-137 2.71387e-138 2.77691e-139 2.67287e-140 2.42776e-141 2.08678e-142 1.70178e-143 1.31976e-144 9.75387e-146 6.88324e-147 4.64642e-148 3.00517e-149 1.86512e-150 1.11235e-151 6.38335e-153 3.52903e-154 1.88173e-155 9.6877e-157 4.82036e-158 2.3203e-159 1.08143e-160 4.88432e-162 2.13948e-163 9.09559e-165 3.75562e-166 1.50714e-167 5.8819e-169 2.23379e-170 8.25991e-172 2.97548e-173 1.04475e-174 3.57736e-176 1.19513e-177 3.8973e-179 1.24109e-180 3.86116e-182 1.17403e-183 3.49024e-185 1.01487e-186 2.88733e-188 8.03431e-190 0 
0 5.7267e-266 4.30371e-264 3.19076e-262 2.33395e-260 1.68419e-258 1.19882e-256 8.4165e-255 5.82753e-253 3.97892e-251 2.67872e-249 1.77796e-247 1.16333e-245 7.50268e-244 4.76884e-242 2.98703e-240 1.84349e-238 1.12089e-236 6.71348e-235 3.96038e-233 2.30075e-231 1.31609e-229 7.41175e-228 4.10875e-226 2.24174e-224 1.20359e-222 6.35801e-221 3.30398e-219 1.6887e-217 8.48774e-216 4.19444e-214 2.0376e-212 9.72836e-211 4.56406e-209 2.10361e-207 9.5233e-206 4.23374e-204 1.84789e-202 7.91665e-201 3.32826e-199 1.37275e-197 5.55338e-196 2.2029e-194 8.56616e-193 3.26441e-191 1.21878e-189 4.45665e-188 1.59559e-186 5.59136e-185 1.91712e-183 6.42921e-182 2.10807e-180 6.75555e-179 2.115e-177 6.46625e-176 1.92972e-174 5.61873e-173 1.59542e-171 4.4156e-170 1.19056e-168 3.12553e-167 7.98462e-166 1.98372e-164 4.78989e-163 1.1233e-161 2.55675e-160 5.64384e-159 1.20729e-157 2.50058e-156 5.01037e-155 9.70272e-154 1.81416e-152 3.27151e-151 5.68355e-150 9.50068e-149 1.52611e-147 2.35231e-146 3.47395e-145 4.90742e-144 6.61924e-143 8.50829e-142 1.03999e-140 1.20604e-139 1.32348e-138 1.37046e-137 1.33486e-136 1.21869e-135 1.03878e-134 8.22945e-134 6.02871e-133 4.06013e-132 2.49677e-131 1.39094e-130 6.95491e-130 3.08703e-129 1.20043e-128 4.02563e-128 1.14271e-127 2.68822e-127 5.13266e-127 7.86229e-127 9.84104e-127 1.07377e-126 1.09135e-126 1.06901e-126 1.07313e-126 1.17722e-126 1.39127e-126 1.59625e-126 1.66779e-126 1.61286e-126 1.54696e-126 1.57728e-126 1.67635e-126 1.72826e-126 1.68626e-126 1.60944e-126 1.56387e-126 1.49666e-126 1.36009e-126 1.22043e-126 1.19312e-126 1.2962e-126 1.43866e-126 1.51942e-126 1.47706e-126 1.3449e-126 1.18583e-126 1.03183e-126 9.40317e-127 9.51509e-127 1.0219e-126 1.09455e-126 1.18541e-126 1.26351e-126 1.24211e-126 1.11413e-126 9.45816e-127 8.03386e-127 7.61482e-127 8.44768e-127 1.00822e-126 1.16688e-126 1.25481e-126 1.31863e-126 1.4146e-126 1.52573e-126 1.60562e-126 1.61582e-126 1.56231e-126 1.47807e-126 1.34675e-126 1.15901e-126 9.45526e-127 7.8773e-127 7.18665e-127 7.19848e-127 8.08731e-127 9.87967e-127 1.16889e-126 1.25399e-126 1.22533e-126 1.10199e-126 9.68113e-127 9.41863e-127 1.05298e-126 1.19009e-126 1.20933e-126 1.09675e-126 9.80562e-127 9.66865e-127 1.01877e-126 1.03633e-126 9.92058e-127 9.20788e-127 8.34675e-127 7.76969e-127 7.95195e-127 8.6102e-127 9.44841e-127 1.10879e-126 1.32435e-126 1.43411e-126 1.35759e-126 1.15712e-126 9.85307e-127 9.86225e-127 1.16243e-126 1.36234e-126 1.44555e-126 1.44247e-126 1.48108e-126 1.62173e-126 1.7917e-126 1.8933e-126 1.90605e-126 1.8449e-126 1.71056e-126 1.52314e-126 1.3001e-126 9.96953e-127 6.36538e-127 3.29153e-127 1.38784e-127 4.86161e-128 1.44362e-128 3.70016e-129 8.31389e-130 1.65899e-130 2.97223e-131 4.82526e-132 7.1543e-133 9.75315e-134 1.22966e-134 1.4411e-135 1.57692e-136 1.61752e-137 1.56077e-138 1.42117e-139 1.22462e-140 1.00119e-141 7.78406e-143 5.76752e-144 4.08047e-145 2.7615e-146 1.79065e-147 1.11421e-148 6.66233e-150 3.83318e-151 2.12469e-152 1.13588e-153 5.86321e-155 2.92507e-156 1.41172e-157 6.59708e-159 2.98754e-160 1.31212e-161 5.5932e-163 2.31567e-164 9.31786e-166 3.64632e-167 1.38853e-168 5.14837e-170 1.85967e-171 6.54757e-173 2.24813e-174 7.53125e-176 2.46273e-177 7.8643e-179 2.45346e-180 7.48084e-182 2.23019e-183 6.50299e-185 1.85533e-186 5.17722e-188 0 
0 4.17229e-264 3.1254e-262 2.30969e-260 1.68403e-258 1.21131e-256 8.59464e-255 6.01481e-253 4.15139e-251 2.82552e-249 1.89622e-247 1.25463e-245 8.18339e-244 5.26124e-242 3.33373e-240 2.08165e-238 1.28075e-236 7.76324e-235 4.63544e-233 2.72613e-231 1.57889e-229 9.00414e-228 5.05542e-226 2.79402e-224 1.51982e-222 8.13541e-221 4.28466e-219 2.2199e-217 1.13124e-215 5.66892e-214 2.79315e-212 1.35286e-210 6.44015e-209 3.01253e-207 1.38444e-205 6.24924e-204 2.77012e-202 1.20557e-200 5.14992e-199 2.15885e-197 8.87871e-196 3.58154e-194 1.41666e-192 5.49312e-191 2.08739e-189 7.77129e-188 2.83369e-186 1.01168e-184 3.53524e-183 1.20874e-181 4.04234e-180 1.32176e-178 4.224e-177 1.31878e-175 4.02085e-174 1.19665e-172 3.47474e-171 9.83952e-170 2.71585e-168 7.30281e-167 1.912e-165 4.87132e-164 1.20699e-162 2.90661e-161 6.79827e-160 1.54324e-158 3.39756e-157 7.24865e-156 1.4974e-154 2.99246e-153 5.77982e-152 1.07786e-150 1.93868e-149 3.35932e-148 5.60101e-147 8.97385e-146 1.37967e-144 2.03234e-143 2.86366e-142 3.85281e-141 4.93988e-140 6.02303e-139 6.96724e-138 7.62673e-137 7.87797e-136 7.65452e-135 6.97136e-134 5.9278e-133 4.68489e-132 3.4239e-131 2.30047e-130 1.41139e-129 7.84491e-129 3.91385e-128 1.73346e-127 6.72679e-127 2.25142e-126 6.37948e-126 1.49848e-125 2.85783e-125 4.37505e-125 5.47603e-125 5.97625e-125 6.07501e-125 5.95233e-125 5.97748e-125 6.55809e-125 7.74811e-125 8.88713e-125 9.28545e-125 8.98138e-125 8.61613e-125 8.78439e-125 9.33415e-125 9.62299e-125 9.39075e-125 8.96431e-125 8.70881e-125 8.33269e-125 7.57295e-125 6.79752e-125 6.646e-125 7.21837e-125 8.0097e-125 8.45806e-125 8.22254e-125 7.48737e-125 6.60166e-125 5.745e-125 5.23636e-125 5.29799e-125 5.68899e-125 6.0941e-125 6.59945e-125 7.03239e-125 6.9129e-125 6.20159e-125 5.26589e-125 4.47475e-125 4.24224e-125 4.70524e-125 5.61373e-125 6.4957e-125 6.98621e-125 7.34277e-125 7.87722e-125 8.49572e-125 8.94034e-125 8.99733e-125 8.69974e-125 8.22985e-125 7.49784e-125 6.45263e-125 5.2652e-125 4.38678e-125 4.00134e-125 4.00817e-125 4.5033e-125 5.4997e-125 6.50546e-125 6.97947e-125 6.82048e-125 6.13536e-125 5.39208e-125 5.24617e-125 5.86241e-125 6.62305e-125 6.73031e-125 6.10639e-125 5.46167e-125 5.38435e-125 5.67111e-125 5.76842e-125 5.52273e-125 5.12587e-125 4.64712e-125 4.32711e-125 4.42854e-125 4.79508e-125 5.26378e-125 6.17634e-125 7.37307e-125 7.98203e-125 7.55659e-125 6.44296e-125 5.48903e-125 5.49415e-125 6.47214e-125 7.58239e-125 8.04635e-125 8.03184e-125 8.24833e-125 9.03073e-125 9.97608e-125 1.05423e-124 1.06141e-124 1.02739e-124 9.52615e-125 8.48255e-125 7.23901e-125 5.55093e-125 3.54611e-125 1.8357e-125 7.75164e-126 2.72019e-126 8.09304e-127 2.07863e-127 4.68052e-128 9.36046e-129 1.68082e-129 2.73502e-130 4.06466e-131 5.55432e-132 7.01956e-133 8.24644e-134 9.04564e-135 9.30127e-136 8.99709e-137 8.21269e-138 7.09452e-139 5.81469e-140 4.53218e-141 3.36657e-142 2.38787e-143 1.62014e-144 1.05324e-145 6.57052e-147 3.93893e-148 2.27214e-149 1.2627e-150 6.76813e-152 3.50273e-153 1.75205e-154 8.47816e-156 3.9724e-157 1.8037e-158 7.94294e-160 3.39489e-161 1.4093e-162 5.68603e-164 2.23109e-165 8.51907e-167 3.16725e-168 1.14717e-169 4.05003e-171 1.3944e-172 4.68409e-174 1.53593e-175 4.91827e-177 1.53863e-178 4.70449e-180 1.40642e-181 4.11244e-183 1.17659e-184 3.29247e-186 0 
0 2.99841e-262 2.23882e-260 1.64918e-258 1.19859e-256 8.59381e-255 6.07816e-253 4.24019e-251 2.9173e-249 1.97931e-247 1.32415e-245 8.73376e-244 5.67884e-242 3.63966e-240 2.29907e-238 1.43114e-236 8.77804e-235 5.30445e-233 3.15759e-231 1.85132e-229 1.06896e-227 6.07761e-226 3.40198e-224 1.87453e-222 1.01659e-220 5.42537e-219 2.84883e-217 1.47159e-215 7.4768e-214 3.73572e-212 1.83521e-210 8.86267e-209 4.20659e-207 1.96198e-205 8.99015e-204 4.04629e-202 1.78842e-200 7.76074e-199 3.30567e-197 1.38176e-195 5.6665e-194 2.27926e-192 8.98985e-191 3.47593e-189 1.31712e-187 4.88978e-186 1.77797e-184 6.32989e-183 2.20576e-181 7.52077e-180 2.50815e-178 8.17839e-177 2.60639e-175 8.11507e-174 2.46742e-172 7.32324e-171 2.12067e-169 5.98883e-168 1.64853e-166 4.42084e-165 1.15433e-163 2.93307e-162 7.24799e-161 1.74076e-159 4.06063e-158 9.1934e-157 2.01865e-155 4.29542e-154 8.85005e-153 1.76399e-151 3.3982e-150 6.32073e-149 1.13393e-147 1.95979e-146 3.25916e-145 5.20839e-144 7.98714e-143 1.17356e-141 1.64942e-140 2.21356e-139 2.83099e-138 3.44311e-137 3.97297e-136 4.33828e-135 4.47017e-134 4.33276e-133 3.93649e-132 3.33915e-131 2.63271e-130 1.91953e-129 1.28669e-128 7.87594e-128 4.36774e-127 2.17425e-126 9.60912e-126 3.72116e-125 1.24303e-124 3.51593e-124 8.24609e-124 1.57087e-123 2.40342e-123 3.00818e-123 3.28366e-123 3.33843e-123 3.27194e-123 3.28697e-123 3.60671e-123 4.25985e-123 4.8847e-123 5.10362e-123 4.93746e-123 4.73759e-123 4.82977e-123 5.13097e-123 5.28961e-123 5.16286e-123 4.92914e-123 4.78773e-123 4.57996e-123 4.16272e-123 3.73767e-123 3.65468e-123 3.96844e-123 4.4024e-123 4.64812e-123 4.51884e-123 4.11511e-123 3.62824e-123 3.1578e-123 2.87869e-123 2.9122e-123 3.12661e-123 3.3496e-123 3.62709e-123 3.86404e-123 3.79817e-123 3.40786e-123 2.89434e-123 2.46052e-123 2.33315e-123 2.58725e-123 3.08574e-123 3.56977e-123 3.83987e-123 4.03655e-123 4.33038e-123 4.67023e-123 4.9145e-123 4.94594e-123 4.78256e-123 4.52378e-123 4.12098e-123 3.54649e-123 2.89446e-123 2.41171e-123 2.19935e-123 2.20323e-123 2.47552e-123 3.02236e-123 3.57435e-123 3.83498e-123 3.74793e-123 3.37223e-123 2.96482e-123 2.88474e-123 3.22212e-123 3.63873e-123 3.69776e-123 3.35642e-123 3.00323e-123 2.96015e-123 3.11654e-123 3.16979e-123 3.03518e-123 2.81701e-123 2.55425e-123 2.37904e-123 2.43478e-123 2.63628e-123 2.895e-123 3.39646e-123 4.05236e-123 4.3859e-123 4.15239e-123 3.54165e-123 3.01877e-123 3.02159e-123 3.55746e-123 4.1662e-123 4.42158e-123 4.41505e-123 4.53488e-123 4.96453e-123 5.48363e-123 5.79512e-123 5.83512e-123 5.64818e-123 5.23734e-123 4.66366e-123 3.97921e-123 3.05121e-123 1.95026e-123 1.01069e-123 4.2742e-124 1.50252e-124 4.47892e-125 1.15274e-125 2.60123e-126 5.21364e-127 9.38307e-128 1.53033e-128 2.27962e-129 3.12244e-130 3.95557e-131 4.65812e-132 5.12196e-133 5.27958e-134 5.11948e-135 4.6847e-136 4.05693e-137 3.33339e-138 2.60469e-139 1.93968e-140 1.37928e-141 9.38203e-143 6.11477e-144 3.8244e-145 2.29857e-146 1.32934e-147 7.40668e-149 3.98035e-150 2.06533e-151 1.03578e-152 5.02529e-154 2.36079e-155 1.07477e-156 4.74552e-158 2.03368e-159 8.46487e-161 3.42443e-162 1.34729e-163 5.1583e-165 1.92296e-166 6.98384e-168 2.47232e-169 8.53529e-171 2.87504e-172 9.45325e-174 3.03542e-175 9.52228e-177 2.91959e-178 8.75245e-180 2.56641e-181 7.36319e-183 2.06623e-184 0 
0 2.12525e-260 1.58176e-258 1.16143e-256 8.41408e-255 6.01364e-253 4.23977e-251 2.94835e-249 2.0221e-247 1.36763e-245 9.1207e-244 5.99701e-242 3.88721e-240 2.48364e-238 1.56399e-236 9.70564e-235 5.93474e-233 3.57529e-231 2.12177e-229 1.24022e-227 7.13937e-226 4.04682e-224 2.2584e-222 1.24066e-220 6.70817e-219 3.56932e-217 1.86865e-215 9.62401e-214 4.87524e-212 2.42869e-210 1.1896e-208 5.72803e-207 2.71081e-205 1.26065e-203 5.75974e-202 2.58483e-200 1.13917e-198 4.92912e-197 2.09352e-195 8.72579e-194 3.56817e-192 1.43115e-190 5.62873e-189 2.1702e-187 8.20028e-186 3.03577e-184 1.10074e-182 3.90788e-181 1.35798e-179 4.6173e-178 1.53558e-176 4.99331e-175 1.58695e-173 4.92745e-172 1.49412e-170 4.4224e-169 1.27716e-167 3.59696e-166 9.87448e-165 2.6409e-163 6.87717e-162 1.74276e-160 4.29509e-159 1.02881e-157 2.39353e-156 5.4047e-155 1.18362e-153 2.51197e-152 5.16197e-151 1.0262e-149 1.97176e-148 3.65801e-147 6.54548e-146 1.12836e-144 1.87166e-143 2.98343e-142 4.56349e-141 6.6882e-140 9.37642e-139 1.25517e-137 1.60127e-136 1.94264e-135 2.23604e-134 2.43562e-133 2.50352e-132 2.42065e-131 2.19393e-130 1.85655e-129 1.46028e-128 1.06219e-127 7.10344e-127 4.33808e-126 2.40032e-125 1.19223e-124 5.25778e-124 2.0319e-123 6.77428e-123 1.91274e-122 4.47928e-122 8.52339e-122 1.3033e-121 1.63121e-121 1.78097e-121 1.81095e-121 1.77538e-121 1.78419e-121 1.958e-121 2.31186e-121 2.65023e-121 2.76901e-121 2.67937e-121 2.57141e-121 2.62125e-121 2.78415e-121 2.87017e-121 2.80188e-121 2.67543e-121 2.59818e-121 2.48489e-121 2.2587e-121 2.02871e-121 1.98384e-121 2.15363e-121 2.38853e-121 2.52146e-121 2.45141e-121 2.23255e-121 1.96837e-121 1.71335e-121 1.56217e-121 1.58015e-121 1.69621e-121 1.81737e-121 1.96778e-121 2.09579e-121 2.05995e-121 1.84854e-121 1.57035e-121 1.33552e-121 1.26665e-121 1.40431e-121 1.67431e-121 1.93653e-121 2.08334e-121 2.19043e-121 2.3499e-121 2.53423e-121 2.6667e-121 2.68382e-121 2.59528e-121 2.4546e-121 2.2358e-121 1.92411e-121 1.57068e-121 1.30879e-121 1.1933e-121 1.19547e-121 1.34328e-121 1.63954e-121 1.93858e-121 2.08004e-121 2.033e-121 1.82963e-121 1.6092e-121 1.56581e-121 1.74814e-121 1.97338e-121 2.00545e-121 1.82111e-121 1.63012e-121 1.60644e-121 1.69062e-121 1.71938e-121 1.64658e-121 1.52819e-121 1.38583e-121 1.29114e-121 1.32137e-121 1.43072e-121 1.57169e-121 1.8437e-121 2.19856e-121 2.37889e-121 2.25237e-121 1.92174e-121 1.63882e-121 1.64034e-121 1.93019e-121 2.25965e-121 2.39841e-121 2.39565e-121 2.46112e-121 2.69403e-121 2.9754e-121 3.14457e-121 3.16653e-121 3.06516e-121 2.84232e-121 2.53103e-121 2.15916e-121 1.65558e-121 1.05878e-121 5.49287e-122 2.32638e-122 8.19227e-123 2.44676e-123 6.31011e-124 1.42696e-124 2.86636e-125 5.17027e-126 8.45179e-127 1.26193e-127 1.73257e-128 2.20007e-129 2.59705e-130 2.86256e-131 2.95784e-132 2.87518e-133 2.63749e-134 2.28972e-135 1.88604e-136 1.47743e-137 1.10299e-138 7.86298e-140 5.36207e-141 3.50365e-142 2.19691e-143 1.32379e-144 7.6756e-146 4.28768e-147 2.31017e-148 1.20183e-149 6.043e-151 2.93956e-152 1.38458e-153 6.32008e-155 2.79793e-156 1.20223e-157 5.01742e-159 2.0352e-160 8.02869e-162 3.08216e-163 1.1521e-164 4.19553e-166 1.48927e-167 5.15548e-169 1.74133e-170 5.74123e-172 1.84857e-173 5.81504e-175 1.78786e-176 5.37458e-178 1.58033e-179 4.54671e-181 1.27945e-182 0 
0 1.48555e-258 1.10211e-256 8.06655e-255 5.82526e-253 4.15016e-251 2.91672e-249 2.0219e-247 1.38234e-245 9.32004e-244 6.19611e-242 4.06135e-240 2.62436e-238 1.67159e-236 1.04938e-234 6.49211e-233 3.95759e-231 2.3769e-229 1.40628e-227 8.19511e-226 4.70325e-224 2.65791e-222 1.47883e-220 8.09965e-219 4.36634e-217 2.31635e-215 1.20908e-213 6.2086e-212 3.13581e-210 1.55756e-208 7.60675e-207 3.652e-205 1.72328e-203 7.99074e-202 3.64028e-200 1.62895e-198 7.1583e-197 3.08846e-195 1.30799e-193 5.43615e-192 2.21664e-190 8.86546e-189 3.47693e-187 1.33677e-185 5.03691e-184 1.85945e-182 6.72336e-181 2.38029e-179 8.24847e-178 2.79682e-176 9.27578e-175 3.00793e-173 9.53343e-172 2.95202e-170 8.92678e-169 2.63503e-167 7.58916e-166 2.13162e-164 5.83601e-163 1.55663e-161 4.04278e-160 1.02176e-158 2.51145e-157 5.99978e-156 1.39216e-154 3.13527e-153 6.84813e-152 1.44956e-150 2.971e-149 5.891e-148 1.12897e-146 2.08906e-145 3.72845e-144 6.41087e-143 1.06069e-141 1.68643e-140 2.57304e-139 3.76149e-138 5.2601e-137 7.02378e-136 8.93812e-135 1.08167e-133 1.24196e-132 1.34949e-131 1.38372e-130 1.33466e-129 1.20674e-128 1.01872e-127 7.99384e-127 5.80096e-126 3.87038e-125 2.35823e-124 1.3019e-123 6.45229e-123 2.8394e-122 1.09505e-121 3.64382e-121 1.02703e-120 2.40152e-120 4.56462e-120 6.97563e-120 8.7305e-120 9.53408e-120 9.69606e-120 9.5083e-120 9.55896e-120 1.04915e-119 1.23838e-119 1.41924e-119 1.48284e-119 1.43511e-119 1.37755e-119 1.40415e-119 1.49111e-119 1.53714e-119 1.50083e-119 1.43331e-119 1.39166e-119 1.33069e-119 1.20966e-119 1.08683e-119 1.06289e-119 1.15357e-119 1.27908e-119 1.35006e-119 1.31259e-119 1.19549e-119 1.054e-119 9.17548e-120 8.36718e-120 8.46241e-120 9.08252e-120 9.73233e-120 1.0537e-119 1.12196e-119 1.10271e-119 9.89684e-120 8.4094e-120 7.1548e-120 6.78727e-120 7.52335e-120 8.96678e-120 1.03689e-119 1.11565e-119 1.1732e-119 1.25862e-119 1.35731e-119 1.42822e-119 1.43742e-119 1.39005e-119 1.31457e-119 1.19726e-119 1.03035e-119 8.41261e-120 7.01029e-120 6.3904e-120 6.40236e-120 7.19429e-120 8.77843e-120 1.03775e-119 1.11354e-119 1.08845e-119 9.79792e-120 8.62067e-120 8.38864e-120 9.36119e-120 1.05632e-119 1.07352e-119 9.7526e-120 8.73317e-120 8.60469e-120 9.05202e-120 9.20534e-120 8.8167e-120 8.18261e-120 7.42128e-120 6.91619e-120 7.07805e-120 7.66376e-120 8.42185e-120 9.87812e-120 1.17731e-119 1.27354e-119 1.20589e-119 1.02921e-119 8.78116e-120 8.78931e-120 1.03367e-119 1.20967e-119 1.28408e-119 1.28302e-119 1.31832e-119 1.44294e-119 1.59348e-119 1.68416e-119 1.69606e-119 1.64181e-119 1.52251e-119 1.35578e-119 1.15637e-119 8.86648e-120 5.67334e-120 2.94647e-120 1.24975e-120 4.40861e-121 1.31923e-121 3.40919e-122 7.72591e-123 1.55532e-123 2.81176e-124 4.60687e-125 6.89444e-126 9.48795e-127 1.20767e-127 1.42899e-128 1.57889e-129 1.6354e-130 1.59358e-131 1.46543e-132 1.27535e-133 1.05311e-134 8.27012e-136 6.18962e-137 4.42357e-138 3.02423e-139 1.98109e-140 1.24537e-141 7.52344e-143 4.37344e-144 2.44935e-145 1.3231e-146 6.90109e-148 3.47902e-149 1.69676e-150 8.01296e-152 3.66722e-153 1.62778e-154 7.01287e-156 2.93454e-157 1.1935e-158 4.72084e-160 1.81716e-161 6.81073e-163 2.48692e-164 8.85161e-166 3.07252e-167 1.04061e-168 3.4403e-170 1.11075e-171 3.50369e-173 1.08019e-174 3.25621e-176 9.60104e-178 2.76997e-179 7.81643e-181 0 