# vtk DataFile Version 3.0
Gray-Scott Simulation Output
ASCII
DATASET STRUCTURED_POINTS
DIMENSIONS 256 256 1
SPACING 1.0 1.0 1.0
ORIGIN 0 0 0
POINT_DATA 65536
SCALARS u double
LOOKUP_TABLE default
0 0 0 0 0 0 0 0 0 0 0 0 0 0 0 0 0 0 0 0 0 0 0 0 0 0 0 0 0 0 0 0 0 0 0 0 0 0 0 0 0 0 0 0 0 0 0 0 0 0 0 0 0 0 0 0 0 0 0 0 0 0 0 0 0 0 0 0 0 0 0 0 0 0 0 0 0 0 0 0 0 0 0 0 0 0 0 0 0 0 0 0 0 0 0 0 0 0 0 0 0 0 0 0 0 0 0 0 0 0 0 0 0 0 0 0 0 0 0 0 0 0 0 0 0 0 0 0 0 0 0 0 0 0 0 0 0 0 0 0 0 0 0 0 0 0 0 0 0 0 0 0 0 0 0 0 0 0 0 0 0 0 0 0 0 0 0 0 0 0 0 0 0 0 0 0 0 0 0 0 0 0 0 0 0 0 0 0 0 0 0 0 0 0 0 0 0 0 0 0 0 0 0 0 0 0 0 0 0 0 0 0 0 0 0 0 0 0 0 0 0 0 0 0 0 0 0 0 0 0 0 0 0 0 0 0 0 0 0 0 0 0 0 0 0 0 0 0 0 0 0 0 0 0 0 0 
0 4.93363e-155 6.77343e-154 9.15422e-153 1.22402e-151 1.61911e-150 2.11858e-149 2.74184e-148 3.50934e-147 4.44167e-146 5.55849e-145 6.87711e-144 8.41093e-143 1.01676e-141 1.21473e-140 1.43406e-139 1.67275e-138 1.92758e-137 2.19409e-136 2.4666e-135 2.73832e-134 3.00156e-133 3.24808e-132 3.46942e-131 3.65739e-130 3.80453e-129 3.90462e-128 3.95303e-127 3.94715e-126 3.88653e-125 3.77304e-124 3.61068e-123 3.40546e-122 3.16496e-121 2.89787e-120 2.61349e-119 2.32114e-118 2.0297e-117 1.74707e-116 1.47994e-115 1.23347e-114 1.01125e-113 8.15314e-113 6.4628e-112 5.03533e-111 3.85506e-110 2.89938e-109 2.14155e-108 1.55298e-107 1.10532e-106 7.7188e-106 5.28705e-105 3.55081e-104 2.33743e-103 1.50761e-102 9.52379e-102 5.89024e-101 3.56516e-100 2.11089e-99 1.22208e-98 6.91483e-98 3.82214e-97 2.06281e-96 1.08646e-95 5.58137e-95 2.79509e-94 1.36372e-93 6.47841e-93 2.99466e-92 1.3461e-91 5.87973e-91 2.49388e-90 1.02638e-89 4.09551e-89 1.58316e-88 5.92359e-88 2.14338e-87 7.49309e-87 2.52842e-86 8.22665e-86 2.57824e-85 7.77449e-85 2.25309e-84 6.26801e-84 1.67187e-83 4.27033e-83 1.04319e-82 2.43419e-82 5.41874e-82 1.14938e-81 2.32029e-81 4.45328e-81 8.11856e-81 1.40486e-80 2.30659e-80 3.59318e-80 5.31345e-80 7.46728e-80 9.99286e-80 1.27711e-79 1.56501e-79 1.84821e-79 2.11592e-79 2.36311e-79 2.58982e-79 2.79846e-79 2.99066e-79 3.16549e-79 3.31964e-79 3.44913e-79 3.55111e-79 3.6245e-79 3.6695e-79 3.6866e-79 3.67628e-79 3.63984e-79 3.58071e-79 3.50544e-79 3.42323e-79 3.34391e-79 3.27488e-79 3.21836e-79 3.17029e-79 3.12191e-79 3.06354e-79 2.98907e-79 2.89918e-79 2.8016e-79 2.70835e-79 2.63115e-79 2.57686e-79 2.54507e-79 2.5286e-79 2.51678e-79 2.50014e-79 2.47476e-79 2.44439e-79 2.41962e-79 2.41436e-79 2.44103e-79 2.50641e-79 2.60946e-79 2.74158e-79 2.88855e-79 3.03317e-79 3.15767e-79 3.24574e-79 3.28435e-79 3.26556e-79 3.18825e-79 3.05925e-79 2.89331e-79 2.71147e-79 2.53776e-79 2.39471e-79 2.29859e-79 2.25588e-79 2.26204e-79 2.30342e-79 2.36175e-79 2.41974e-79 2.46572e-79 2.49545e-79 2.51078e-79 2.51627e-79 2.51568e-79 2.51014e-79 2.49847e-79 2.47865e-79 2.44933e-79 2.41066e-79 2.36442e-79 2.31422e-79 2.2658e-79 2.22706e-79 2.20705e-79 2.21387e-79 2.2517e-79 2.31851e-79 2.40552e-79 2.49925e-79 2.58586e-79 2.65612e-79 2.709e-79 2.75204e-79 2.79831e-79 2.86122e-79 2.94977e-79 3.06585e-79 3.20425e-79 3.35413e-79 3.50067e-79 3.62627e-79 3.71163e-79 3.73741e-79 3.68679e-79 3.54864e-79 3.32025e-79 3.00902e-79 2.63244e-79 2.21604e-79 1.78972e-79 1.38297e-79 1.02011e-79 7.16921e-80 4.79373e-80 3.04684e-80 1.8399e-80 1.05553e-80 5.75435e-81 2.98267e-81 1.47105e-81 6.90977e-82 3.09433e-82 1.32258e-82 5.40179e-83 2.11072e-83 7.89996e-84 2.83553e-84 9.77163e-85 3.23684e-85 1.03176e-85 3.16819e-86 9.38134e-87 2.6815e-87 7.40572e-88 1.97804e-88 5.11407e-89 1.28094e-89 3.11086e-90 7.33086e-91 1.67757e-91 3.7305e-92 8.067e-93 1.69747e-93 3.47786e-94 6.94228e-95 1.35091e-95 2.56405e-96 4.74935e-97 8.58959e-98 1.5176e-98 2.62056e-99 4.42467e-100 7.30818e-101 1.18131e-101 1.86948e-102 2.8977e-103 4.40074e-104 6.55082e-105 9.56133e-106 1.3688e-106 1.92268e-107 2.6499e-108 3.52553e-109 0 
0 6.77011e-154 9.28981e-153 1.25483e-151 1.67695e-150 2.21705e-149 2.89942e-148 3.7504e-147 4.79766e-146 6.06904e-145 7.59101e-144 9.38684e-143 1.14743e-141 1.38635e-140 1.65541e-139 1.95329e-138 2.27721e-137 2.62276e-136 2.98383e-135 3.35268e-134 3.72008e-133 4.0756e-132 4.40805e-131 4.70602e-130 4.95844e-129 5.1553e-128 5.28821e-127 5.35106e-126 5.34039e-125 5.25573e-124 5.09968e-123 4.87779e-122 4.59825e-121 4.27137e-120 3.90897e-119 3.52362e-118 3.12793e-117 2.73384e-116 2.35201e-115 1.99141e-114 1.65895e-113 1.35942e-112 1.0955e-111 8.67959e-111 6.75928e-110 5.17245e-109 3.88836e-108 2.87068e-107 2.08075e-106 1.48026e-105 1.03324e-104 7.074e-104 4.74877e-103 3.12461e-102 2.01442e-101 1.27197e-100 7.86334e-100 4.75732e-99 2.81552e-98 1.62931e-97 9.21508e-97 5.09142e-96 2.74668e-95 1.44605e-94 7.42555e-94 3.71711e-93 1.81284e-92 8.6085e-92 3.97773e-91 1.78729e-90 7.80384e-90 3.30874e-89 1.36123e-88 5.42967e-88 2.09813e-87 7.84763e-87 2.83858e-86 9.92011e-86 3.34627e-85 1.08841e-84 3.41002e-84 1.02795e-83 2.97817e-83 8.2828e-83 2.20867e-82 5.63996e-82 1.37742e-81 3.21334e-81 7.15159e-81 1.51662e-80 3.06106e-80 5.87399e-80 1.07069e-79 1.8525e-79 3.04118e-79 4.73704e-79 7.00439e-79 9.84308e-79 1.31717e-78 1.68333e-78 2.06278e-78 2.43604e-78 2.78886e-78 3.11462e-78 3.41332e-78 3.6881e-78 3.94115e-78 4.17124e-78 4.37405e-78 4.54439e-78 4.67849e-78 4.77499e-78 4.83413e-78 4.85657e-78 4.84297e-78 4.79502e-78 4.71725e-78 4.61827e-78 4.51017e-78 4.40588e-78 4.31511e-78 4.24076e-78 4.1775e-78 4.1138e-78 4.03692e-78 3.93886e-78 3.82051e-78 3.69204e-78 3.56927e-78 3.46762e-78 3.39611e-78 3.35423e-78 3.33252e-78 3.31696e-78 3.29511e-78 3.26181e-78 3.222e-78 3.18958e-78 3.18282e-78 3.21807e-78 3.30421e-78 3.43989e-78 3.61377e-78 3.80716e-78 3.99743e-78 4.16121e-78 4.27702e-78 4.32773e-78 4.30289e-78 4.20104e-78 4.03117e-78 3.8127e-78 3.57331e-78 3.34462e-78 3.15627e-78 3.02971e-78 2.97344e-78 2.98151e-78 3.03597e-78 3.11276e-78 3.18916e-78 3.24977e-78 3.28898e-78 3.30924e-78 3.31655e-78 3.31584e-78 3.30863e-78 3.29336e-78 3.26735e-78 3.22883e-78 3.17795e-78 3.11706e-78 3.05091e-78 2.98704e-78 2.93585e-78 2.90931e-78 2.91806e-78 2.96764e-78 3.05539e-78 3.16975e-78 3.29302e-78 3.40697e-78 3.49945e-78 3.56909e-78 3.62582e-78 3.68681e-78 3.7697e-78 3.88632e-78 4.03916e-78 4.22136e-78 4.41865e-78 4.61151e-78 4.77679e-78 4.88908e-78 4.92292e-78 4.85621e-78 4.67425e-78 4.37348e-78 3.96365e-78 3.46773e-78 2.91936e-78 2.35789e-78 1.82215e-78 1.34418e-78 9.44772e-79 6.31803e-79 4.01622e-79 2.42565e-79 1.3918e-79 7.58898e-80 3.93441e-80 1.94086e-80 9.11867e-81 4.08451e-81 1.74625e-81 7.13409e-82 2.7884e-82 1.04394e-82 3.74813e-83 1.29206e-83 4.2813e-84 1.36514e-84 4.19328e-85 1.2421e-85 3.55159e-86 9.81225e-87 2.62177e-87 6.7809e-88 1.69908e-88 4.12792e-89 9.73139e-90 2.22777e-90 4.95599e-91 1.07214e-91 2.25694e-92 4.62602e-93 9.23803e-94 1.7984e-94 3.41485e-95 6.32798e-96 1.14496e-96 2.02379e-97 3.49618e-98 5.90572e-99 9.75878e-100 1.57814e-100 2.49862e-101 3.87462e-102 5.88708e-103 8.76739e-104 1.28025e-104 1.83367e-105 2.57685e-106 3.55317e-107 4.72943e-108 0 
0 9.1451e-153 1.2542e-151 1.69321e-150 2.26156e-149 2.98834e-148 3.90599e-147 5.04968e-146 6.45629e-145 8.16283e-144 1.02044e-142 1.26118e-141 1.54083e-140 1.86067e-139 2.2206e-138 2.61879e-137 3.05147e-136 3.51266e-135 3.99414e-134 4.48554e-133 4.97448e-132 5.44704e-131 5.8883e-130 6.28307e-129 6.61666e-128 6.8758e-127 7.04945e-126 7.12958e-125 7.11172e-124 6.99542e-123 6.78427e-122 6.4858e-121 6.11102e-120 5.67376e-119 5.18977e-118 4.67583e-117 4.14868e-116 3.62419e-115 3.11648e-114 2.63738e-113 2.196e-112 1.79862e-111 1.44874e-110 1.14727e-109 8.93016e-109 6.83043e-108 5.13229e-107 3.78725e-106 2.74381e-105 1.95106e-104 1.36123e-103 9.31526e-103 6.25046e-102 4.11082e-101 2.64902e-100 1.67193e-99 1.03313e-98 6.24764e-98 3.69591e-97 2.13785e-96 1.20861e-95 6.67481e-95 3.59934e-94 1.89415e-93 9.72257e-93 4.86496e-92 2.37168e-91 1.12577e-90 5.19979e-90 2.33548e-89 1.01935e-88 4.32027e-88 1.77671e-87 7.08434e-87 2.73654e-86 1.02318e-85 3.6997e-85 1.29251e-84 4.35847e-84 1.41718e-83 4.43866e-83 1.33763e-82 3.87422e-82 1.07718e-81 2.8716e-81 7.33084e-81 1.78993e-80 4.17468e-80 9.28908e-80 1.9695e-79 3.97438e-79 7.62525e-79 1.38968e-78 2.40409e-78 3.94624e-78 6.1462e-78 9.08732e-78 1.27694e-77 1.70869e-77 2.18365e-77 2.67585e-77 3.16002e-77 3.61767e-77 4.04016e-77 4.42746e-77 4.78364e-77 5.11151e-77 5.40952e-77 5.67212e-77 5.89261e-77 6.06617e-77 6.19102e-77 6.26752e-77 6.2965e-77 6.27885e-77 6.21675e-77 6.11609e-77 5.98799e-77 5.84812e-77 5.71317e-77 5.59572e-77 5.49948e-77 5.41755e-77 5.335e-77 5.23536e-77 5.10829e-77 4.95493e-77 4.78847e-77 4.62941e-77 4.49768e-77 4.405e-77 4.35069e-77 4.32253e-77 4.30238e-77 4.27415e-77 4.23117e-77 4.17979e-77 4.13803e-77 4.12951e-77 4.17535e-77 4.28705e-77 4.46284e-77 4.68805e-77 4.93849e-77 5.18485e-77 5.39686e-77 5.54673e-77 5.61226e-77 5.57995e-77 5.4479e-77 5.22777e-77 4.94469e-77 4.63453e-77 4.33824e-77 4.0942e-77 3.93019e-77 3.85723e-77 3.86764e-77 3.93817e-77 4.03769e-77 4.13673e-77 4.21534e-77 4.26626e-77 4.29262e-77 4.30218e-77 4.30135e-77 4.29213e-77 4.27245e-77 4.23887e-77 4.18907e-77 4.1232e-77 4.04429e-77 3.95848e-77 3.87556e-77 3.80901e-77 3.77434e-77 3.78538e-77 3.84932e-77 3.96274e-77 4.11068e-77 4.27021e-77 4.41774e-77 4.53753e-77 4.6278e-77 4.70139e-77 4.7805e-77 4.88799e-77 5.03914e-77 5.23719e-77 5.47324e-77 5.72881e-77 5.97862e-77 6.19265e-77 6.33801e-77 6.38175e-77 6.2952e-77 6.05935e-77 5.66955e-77 5.13841e-77 4.4957e-77 3.78497e-77 3.05722e-77 2.36276e-77 1.74314e-77 1.22532e-77 8.1951e-78 5.21014e-78 3.14721e-78 1.80613e-78 9.84996e-79 5.10761e-79 2.52015e-79 1.1843e-79 5.3061e-80 2.2691e-80 9.27262e-81 3.62526e-81 1.35764e-81 4.87591e-82 1.68135e-82 5.57302e-83 1.7776e-83 5.46207e-84 1.61849e-84 4.62945e-85 1.27947e-85 3.41992e-86 8.8485e-87 2.218e-87 5.39069e-88 1.27133e-88 2.91156e-89 6.47976e-90 1.40235e-90 2.95326e-91 6.05578e-92 1.20983e-92 2.35621e-93 4.47594e-94 8.29785e-95 1.50204e-95 2.65611e-96 4.59055e-97 7.75779e-98 1.28249e-98 2.07492e-99 3.28665e-100 5.09898e-101 7.75093e-102 1.15485e-102 1.68714e-103 2.41758e-104 3.39903e-105 4.68908e-106 6.24426e-107 0 
0 1.22217e-151 1.67523e-150 2.26039e-149 3.01751e-148 3.98508e-147 5.20599e-146 6.72672e-145 8.59586e-144 1.08621e-142 1.35716e-141 1.67644e-140 2.04708e-139 2.4707e-138 2.94707e-137 3.4737e-136 4.04549e-135 4.65447e-134 5.28969e-133 5.93737e-132 6.58113e-131 7.20257e-130 7.78202e-129 8.29945e-128 8.7356e-127 9.07306e-126 9.29744e-125 9.39831e-124 9.37e-123 9.21208e-122 8.9295e-121 8.53235e-120 8.03528e-119 7.45659e-118 6.81712e-117 6.13896e-116 5.44417e-115 4.75355e-114 4.08562e-113 3.45584e-112 2.87608e-111 2.3545e-110 1.89556e-109 1.5004e-108 1.16732e-107 8.92429e-107 6.70242e-106 4.94356e-105 3.57987e-104 2.54437e-103 1.77436e-102 1.21368e-101 8.13998e-101 5.35109e-100 3.4467e-99 2.17441e-98 1.34303e-97 8.11813e-97 4.80033e-96 2.77549e-95 1.56841e-94 8.65824e-94 4.66693e-93 2.45494e-92 1.25959e-91 6.30013e-91 3.0701e-90 1.45671e-89 6.7257e-89 3.01967e-88 1.31746e-87 5.58167e-87 2.29461e-86 9.14605e-86 3.53168e-85 1.32002e-84 4.77138e-84 1.66635e-83 5.61725e-83 1.8259e-82 5.71701e-82 1.72235e-81 4.98706e-81 1.3862e-80 3.6944e-80 9.42894e-80 2.30164e-79 5.36691e-79 1.19393e-78 2.53089e-78 5.10629e-78 9.79528e-78 1.78489e-77 3.08737e-77 5.06724e-77 7.89138e-77 1.16667e-76 1.63931e-76 2.1935e-76 2.80315e-76 3.43495e-76 4.05645e-76 4.64388e-76 5.18611e-76 5.68307e-76 6.13992e-76 6.56029e-76 6.94223e-76 7.27869e-76 7.56112e-76 7.78338e-76 7.94324e-76 8.04114e-76 8.07819e-76 8.05551e-76 7.97593e-76 7.847e-76 7.68297e-76 7.50387e-76 7.33108e-76 7.18069e-76 7.05743e-76 6.95242e-76 6.84657e-76 6.71879e-76 6.55583e-76 6.35919e-76 6.14578e-76 5.94184e-76 5.77293e-76 5.65405e-76 5.58436e-76 5.54822e-76 5.5224e-76 5.48631e-76 5.4314e-76 5.36582e-76 5.31259e-76 5.30196e-76 5.36095e-76 5.50428e-76 5.72966e-76 6.01831e-76 6.33922e-76 6.65486e-76 6.92644e-76 7.11836e-76 7.20217e-76 7.16057e-76 6.99116e-76 6.70886e-76 6.34591e-76 5.94826e-76 5.56839e-76 5.2555e-76 5.04518e-76 4.95158e-76 4.96487e-76 5.05526e-76 5.18287e-76 5.30994e-76 5.41085e-76 5.47627e-76 5.5102e-76 5.52258e-76 5.52165e-76 5.50995e-76 5.48488e-76 5.44198e-76 5.37826e-76 5.29388e-76 5.19268e-76 5.08253e-76 4.97599e-76 4.89036e-76 4.84556e-76 4.85933e-76 4.94093e-76 5.08597e-76 5.27533e-76 5.47964e-76 5.66865e-76 5.8222e-76 5.93799e-76 6.03244e-76 6.134e-76 6.27193e-76 6.46579e-76 6.71974e-76 7.02237e-76 7.34997e-76 7.67014e-76 7.94441e-76 8.13063e-76 8.18654e-76 8.07544e-76 7.77291e-76 7.273e-76 6.59185e-76 5.76758e-76 4.85603e-76 3.9226e-76 3.0318e-76 2.23693e-76 1.57258e-76 1.05189e-76 6.6884e-77 4.04076e-77 2.31931e-77 1.2651e-77 6.56132e-78 3.23811e-78 1.52204e-78 6.82093e-79 2.91763e-79 1.1926e-79 4.66392e-80 1.74711e-80 6.27654e-81 2.16499e-81 7.17837e-82 2.2904e-82 7.04009e-83 2.08679e-83 5.97102e-84 1.65084e-84 4.41414e-85 1.14251e-85 2.86494e-86 6.96568e-87 1.6434e-87 3.76515e-88 8.38278e-89 1.81493e-89 3.82368e-90 7.84384e-91 1.5677e-91 3.05448e-92 5.80485e-93 1.07661e-93 1.94967e-94 3.44917e-95 5.96383e-96 1.0083e-96 1.66764e-97 2.69925e-98 4.27753e-99 6.63926e-100 1.00969e-100 1.50509e-101 2.19984e-102 3.15372e-103 4.4361e-104 6.12263e-105 8.157e-106 0 
0 1.61581e-150 2.21362e-149 2.98522e-148 3.98297e-147 5.25728e-146 6.86428e-145 8.86466e-144 1.13218e-142 1.42991e-141 1.78564e-140 2.20455e-139 2.69052e-138 3.24558e-137 3.86931e-136 4.55835e-135 5.30588e-134 6.10139e-133 6.93047e-132 7.77499e-131 8.61351e-130 9.42198e-129 1.01747e-127 1.08456e-126 1.14097e-125 1.18444e-124 1.21311e-123 1.22565e-122 1.22134e-121 1.20015e-120 1.16274e-119 1.11047e-118 1.04525e-117 9.69491e-117 8.85907e-116 7.97383e-115 7.06789e-114 6.16825e-113 5.29895e-112 4.47995e-111 3.72658e-110 3.04929e-109 2.45374e-108 1.94129e-107 1.50962e-106 1.15357e-105 8.65958e-105 6.38412e-104 4.6209e-103 3.28276e-102 2.28823e-101 1.56446e-100 1.04878e-99 6.89142e-99 4.43685e-98 2.79782e-97 1.72731e-96 1.04364e-95 6.16849e-95 3.565e-94 2.01371e-93 1.11117e-92 5.98689e-92 3.14798e-91 1.61451e-90 8.0721e-90 3.93202e-89 1.86494e-88 8.60716e-88 3.86291e-87 1.68473e-86 7.13499e-86 2.93211e-85 1.16828e-84 4.50964e-84 1.68497e-83 6.08845e-83 2.12562e-82 7.16312e-82 2.32766e-81 7.28581e-81 2.19433e-80 6.35185e-80 1.76507e-79 4.70289e-79 1.19998e-78 2.9285e-78 6.82704e-78 1.51843e-77 3.21812e-77 6.49164e-77 1.24507e-76 2.26842e-76 3.92323e-76 6.43839e-76 1.00258e-75 1.48212e-75 2.08244e-75 2.78633e-75 3.56069e-75 4.36317e-75 5.15258e-75 5.8987e-75 6.5873e-75 7.21825e-75 7.79808e-75 8.33138e-75 8.81575e-75 9.2423e-75 9.60026e-75 9.8819e-75 1.00844e-74 1.02084e-74 1.02553e-74 1.02264e-74 1.01255e-74 9.96211e-75 9.75426e-75 9.52736e-75 9.30846e-75 9.11791e-75 8.96169e-75 8.82854e-75 8.69424e-75 8.53209e-75 8.32531e-75 8.07583e-75 7.80509e-75 7.54638e-75 7.33206e-75 7.18119e-75 7.0927e-75 7.04681e-75 7.01408e-75 6.96844e-75 6.89903e-75 6.81619e-75 6.74906e-75 6.73595e-75 6.81106e-75 6.99304e-75 7.27896e-75 7.64502e-75 8.05192e-75 8.45206e-75 8.79629e-75 9.03946e-75 9.14551e-75 9.09252e-75 8.87745e-75 8.51925e-75 8.05878e-75 7.55433e-75 7.07243e-75 6.67548e-75 6.4086e-75 6.28979e-75 6.30657e-75 6.42121e-75 6.58314e-75 6.74443e-75 6.8726e-75 6.95577e-75 6.99899e-75 7.01486e-75 7.01384e-75 6.99917e-75 6.96756e-75 6.91334e-75 6.83266e-75 6.7257e-75 6.59728e-75 6.45737e-75 6.32193e-75 6.21291e-75 6.15562e-75 6.17259e-75 6.2756e-75 6.45914e-75 6.69897e-75 6.95786e-75 7.19747e-75 7.39223e-75 7.53919e-75 7.65915e-75 7.78815e-75 7.96327e-75 8.20931e-75 8.53151e-75 8.91541e-75 9.33093e-75 9.73697e-75 1.00847e-74 1.03208e-74 1.03915e-74 1.02504e-74 9.86639e-75 9.23199e-75 8.36762e-75 7.32161e-75 6.16478e-75 4.9801e-75 3.84944e-75 2.84045e-75 1.99706e-75 1.33598e-75 8.49591e-76 5.13351e-76 2.947e-76 1.60776e-76 8.34016e-77 4.11685e-77 1.93551e-77 8.67591e-78 3.71202e-78 1.5177e-78 5.93692e-79 2.22461e-79 7.99429e-80 2.75834e-80 9.14854e-81 2.91995e-81 8.97813e-82 2.66216e-82 7.61995e-83 2.10746e-83 5.63713e-84 1.45959e-84 3.66139e-85 8.9055e-86 2.10187e-86 4.81739e-87 1.07297e-87 2.32398e-88 4.89813e-89 1.00521e-89 2.00987e-90 3.91763e-91 7.44836e-92 1.38201e-92 2.50382e-93 4.43144e-94 7.66557e-95 1.29659e-95 2.14539e-96 3.47409e-97 5.50789e-98 8.55282e-99 1.3013e-99 1.94066e-100 2.83778e-101 4.07018e-102 5.72788e-103 7.90926e-104 1.05421e-104 0 
0 2.11311e-149 2.89336e-148 3.8998e-147 5.20043e-146 6.86057e-145 8.95284e-144 1.15557e-142 1.47509e-141 1.862e-140 2.32399e-139 2.86767e-138 3.49797e-137 4.21738e-136 5.02522e-135 5.91699e-134 6.88373e-133 7.91167e-132 8.98204e-131 1.00713e-129 1.11517e-128 1.21921e-127 1.31594e-126 1.40199e-125 1.47415e-124 1.52953e-123 1.56576e-122 1.58113e-121 1.57477e-120 1.54667e-119 1.49771e-118 1.42966e-117 1.34503e-116 1.24692e-115 1.13885e-114 1.02454e-113 9.07694e-113 7.91771e-112 6.79853e-111 5.74496e-110 4.77656e-109 3.90655e-108 3.14207e-107 2.48467e-106 1.93126e-105 1.47507e-104 1.10678e-103 8.15575e-103 5.90049e-102 4.18987e-101 2.91918e-100 1.99494e-99 1.33676e-98 8.77975e-98 5.65009e-97 3.56129e-96 2.1977e-95 1.32727e-94 7.84152e-94 4.52997e-93 2.55769e-92 1.41075e-91 7.59785e-91 3.9934e-90 2.04727e-89 1.02317e-88 4.982e-88 2.36202e-87 1.08971e-86 4.88877e-86 2.13134e-85 9.0231e-85 3.70667e-84 1.47638e-83 5.69693e-83 2.12785e-82 7.6862e-82 2.68255e-81 9.03706e-81 2.93568e-80 9.18623e-80 2.76589e-79 8.00406e-79 2.22359e-78 5.92304e-78 1.51093e-77 3.68649e-77 8.5922e-77 1.91062e-76 4.04854e-76 8.16533e-76 1.56582e-75 2.85239e-75 4.93257e-75 8.09395e-75 1.26027e-74 1.86294e-74 2.61736e-74 3.50195e-74 4.47509e-74 5.4836e-74 6.47569e-74 7.41332e-74 8.27855e-74 9.07114e-74 9.79924e-74 1.04686e-73 1.10764e-73 1.16114e-73 1.20603e-73 1.24134e-73 1.26672e-73 1.28225e-73 1.28811e-73 1.28449e-73 1.27183e-73 1.25134e-73 1.22528e-73 1.19684e-73 1.1694e-73 1.14552e-73 1.12593e-73 1.10922e-73 1.09237e-73 1.07201e-73 1.04605e-73 1.01473e-73 9.80752e-74 9.48279e-74 9.21375e-74 9.02432e-74 8.91317e-74 8.85551e-74 8.81446e-74 8.75734e-74 8.67055e-74 8.56702e-74 8.48327e-74 8.46728e-74 8.56191e-74 8.7905e-74 9.14938e-74 9.60868e-74 1.01191e-73 1.0621e-73 1.10527e-73 1.13575e-73 1.14903e-73 1.14235e-73 1.11534e-73 1.07037e-73 1.01257e-73 9.49251e-74 8.88768e-74 8.38942e-74 8.05439e-74 7.90516e-74 7.92614e-74 8.07e-74 8.27328e-74 8.47586e-74 8.63694e-74 8.74155e-74 8.79602e-74 8.81614e-74 8.81506e-74 8.79687e-74 8.75744e-74 8.68964e-74 8.58857e-74 8.45442e-74 8.29319e-74 8.11737e-74 7.94699e-74 7.80965e-74 7.73716e-74 7.75782e-74 7.88649e-74 8.11627e-74 8.41679e-74 8.74137e-74 9.04191e-74 9.28631e-74 9.47084e-74 9.62159e-74 9.78371e-74 1.00037e-73 1.03126e-73 1.07171e-73 1.11989e-73 1.17204e-73 1.22298e-73 1.26661e-73 1.29621e-73 1.30506e-73 1.28732e-73 1.2391e-73 1.15945e-73 1.05093e-73 9.19591e-74 7.74335e-74 6.25571e-74 4.8358e-74 3.56859e-74 2.50925e-74 1.67881e-74 1.06775e-74 6.45262e-75 3.70486e-75 2.02157e-75 1.04888e-75 5.1785e-76 2.43516e-76 1.09181e-76 4.6725e-77 1.91089e-77 7.477e-78 2.80247e-78 1.00738e-78 3.47687e-79 1.15352e-79 3.68288e-80 1.13276e-80 3.35993e-81 9.62049e-82 2.66168e-82 7.12209e-83 1.84475e-83 4.62926e-84 1.12638e-84 2.65949e-85 6.09778e-86 1.35868e-86 2.94397e-87 6.20733e-88 1.2744e-88 2.54916e-89 4.97086e-90 9.45475e-91 1.75503e-91 3.18098e-92 5.63235e-93 9.74716e-94 1.6494e-94 2.73036e-95 4.42333e-96 7.01598e-97 1.08995e-97 1.6591e-98 2.47539e-99 3.62137e-100 5.19647e-101 7.3163e-102 1.01073e-102 1.3478e-103 0 
0 2.73326e-148 3.7405e-147 5.0389e-146 6.71582e-145 8.85498e-144 1.15493e-142 1.48991e-141 1.90086e-140 2.39818e-139 2.99161e-138 3.68953e-137 4.49809e-136 5.42033e-135 6.45521e-134 7.59675e-133 8.83332e-132 1.01471e-130 1.15139e-129 1.29035e-128 1.42804e-127 1.56046e-126 1.68339e-125 1.79255e-124 1.88385e-123 1.95363e-122 1.99888e-121 2.01749e-120 2.00836e-119 1.97152e-118 1.90816e-117 1.82055e-116 1.71192e-115 1.58626e-114 1.44807e-113 1.30209e-112 1.15302e-111 1.00527e-110 8.62757e-110 7.28703e-109 6.05576e-108 4.95039e-107 3.97973e-106 3.14559e-105 2.44382e-104 1.86568e-103 1.39921e-102 1.03058e-101 7.45258e-101 5.28956e-100 3.68369e-99 2.51625e-98 1.68532e-97 1.10642e-96 7.11703e-96 4.48395e-95 2.76587e-94 1.66969e-93 9.8603e-93 5.69378e-92 3.21344e-91 1.77171e-90 9.53793e-90 5.01106e-89 2.56795e-88 1.28288e-87 6.24412e-87 2.95925e-86 1.36472e-85 6.12026e-85 2.66724e-84 1.12877e-83 4.63532e-83 1.84561e-82 7.11924e-82 2.6582e-81 9.59875e-81 3.34897e-80 1.12786e-79 3.66272e-79 1.14578e-78 3.44886e-78 9.97771e-78 2.77115e-77 7.3797e-77 1.88206e-76 4.59094e-76 1.06979e-75 2.37837e-75 5.03873e-75 1.01606e-74 1.94814e-74 3.54834e-74 6.13531e-74 1.00665e-73 1.56727e-73 2.31659e-73 3.25457e-73 4.35437e-73 5.56428e-73 6.81818e-73 8.05167e-73 9.21739e-73 1.02929e-72 1.12779e-72 1.21824e-72 1.30137e-72 1.3768e-72 1.44319e-72 1.49888e-72 1.54267e-72 1.57414e-72 1.59339e-72 1.60065e-72 1.59614e-72 1.58043e-72 1.55501e-72 1.52269e-72 1.48742e-72 1.4534e-72 1.42378e-72 1.39948e-72 1.37875e-72 1.35782e-72 1.33253e-72 1.30029e-72 1.2614e-72 1.21921e-72 1.17889e-72 1.14547e-72 1.12194e-72 1.10813e-72 1.10097e-72 1.09587e-72 1.0888e-72 1.07807e-72 1.06527e-72 1.05493e-72 1.053e-72 1.0648e-72 1.0932e-72 1.13777e-72 1.19478e-72 1.25812e-72 1.3204e-72 1.37395e-72 1.41176e-72 1.4282e-72 1.41987e-72 1.3863e-72 1.33045e-72 1.25868e-72 1.18006e-72 1.10496e-72 1.04309e-72 1.00148e-72 9.82937e-73 9.85532e-73 1.00339e-72 1.02864e-72 1.05381e-72 1.07384e-72 1.08685e-72 1.09365e-72 1.09617e-72 1.09606e-72 1.09383e-72 1.08897e-72 1.08058e-72 1.06805e-72 1.05141e-72 1.03138e-72 1.00952e-72 9.88318e-73 9.71201e-73 9.62125e-73 9.64612e-73 9.80508e-73 1.00897e-72 1.04622e-72 1.08648e-72 1.12377e-72 1.15411e-72 1.17704e-72 1.19578e-72 1.21593e-72 1.24327e-72 1.28165e-72 1.33187e-72 1.3917e-72 1.45644e-72 1.51968e-72 1.57382e-72 1.61054e-72 1.6215e-72 1.59944e-72 1.53954e-72 1.4406e-72 1.30579e-72 1.14266e-72 9.62216e-73 7.77406e-73 6.00997e-73 4.43545e-73 3.1191e-73 2.08706e-73 1.32757e-73 8.02392e-74 4.60776e-74 2.51468e-74 1.30496e-74 6.44413e-75 3.03097e-75 1.35925e-75 5.81842e-76 2.38013e-76 9.3155e-77 3.49252e-77 1.25578e-77 4.33548e-78 1.43882e-78 4.59519e-79 1.41382e-79 4.19496e-80 1.20154e-80 3.32543e-81 8.90125e-82 2.3064e-82 5.78986e-83 1.4093e-83 3.32872e-84 7.63513e-85 1.70188e-85 3.68906e-86 7.78144e-87 1.59821e-87 3.19818e-88 6.23901e-89 1.18717e-89 2.20461e-90 3.99753e-91 7.08118e-92 1.22597e-92 2.07547e-93 3.43719e-94 5.57088e-95 8.84008e-96 1.37395e-96 2.09234e-97 3.12321e-98 4.57118e-99 6.56241e-100 9.24375e-101 1.2776e-101 1.70443e-102 0 
0 3.49639e-147 4.7823e-146 6.43887e-145 8.5771e-144 1.13031e-142 1.47344e-141 1.89979e-140 2.42251e-139 3.05468e-138 3.80855e-137 4.69457e-136 5.72038e-135 6.8896e-134 8.2007e-133 9.64587e-132 1.12101e-130 1.28707e-129 1.45968e-128 1.63501e-127 1.80853e-126 1.97522e-125 2.12973e-124 2.26668e-123 2.38091e-122 2.46784e-121 2.52373e-120 2.54594e-119 2.53314e-118 2.48543e-117 2.40435e-116 2.29282e-115 2.15494e-114 1.99577e-113 1.82101e-112 1.63662e-111 1.44855e-110 1.26232e-109 1.08284e-108 9.14148e-108 7.59323e-107 6.20426e-106 4.98538e-105 3.93859e-104 3.05846e-103 2.33382e-102 1.7495e-101 1.28799e-100 9.30972e-100 6.60467e-99 4.59746e-98 3.13902e-97 2.1015e-96 1.37902e-95 8.86666e-95 5.58383e-94 3.44283e-93 2.07747e-92 1.22632e-91 7.07832e-91 3.99318e-90 2.20071e-89 1.18426e-88 6.21936e-88 3.18589e-87 1.59095e-86 7.74059e-86 3.66706e-85 1.6905e-84 7.57844e-84 3.30151e-83 1.39669e-82 5.73351e-82 2.28208e-81 8.79985e-81 3.28462e-80 1.18569e-79 4.13551e-79 1.39231e-78 4.52019e-78 1.41361e-77 4.25383e-77 1.23032e-76 3.41612e-76 9.09501e-76 2.31897e-75 5.65542e-75 1.31755e-74 2.92863e-74 6.20333e-74 1.25069e-73 2.39763e-73 4.36646e-73 7.54899e-73 1.23847e-72 1.92804e-72 2.84966e-72 4.00329e-72 5.35594e-72 6.84403e-72 8.38624e-72 9.90335e-72 1.1337e-71 1.26596e-71 1.38705e-71 1.4982e-71 1.6003e-71 1.69293e-71 1.77442e-71 1.84275e-71 1.89647e-71 1.93507e-71 1.95867e-71 1.96756e-71 1.96201e-71 1.94272e-71 1.91153e-71 1.87188e-71 1.82862e-71 1.78689e-71 1.75055e-71 1.72074e-71 1.69529e-71 1.66957e-71 1.63851e-71 1.5989e-71 1.55114e-71 1.49931e-71 1.44978e-71 1.40874e-71 1.37983e-71 1.36285e-71 1.35404e-71 1.34779e-71 1.33913e-71 1.32599e-71 1.31034e-71 1.29772e-71 1.29543e-71 1.30997e-71 1.34488e-71 1.39962e-71 1.46962e-71 1.54739e-71 1.62382e-71 1.68954e-71 1.73592e-71 1.75606e-71 1.74579e-71 1.70453e-71 1.63591e-71 1.54775e-71 1.45118e-71 1.35894e-71 1.28294e-71 1.23182e-71 1.20903e-71 1.21221e-71 1.23414e-71 1.26516e-71 1.2961e-71 1.32073e-71 1.33675e-71 1.34513e-71 1.34826e-71 1.34816e-71 1.34545e-71 1.33952e-71 1.32925e-71 1.3139e-71 1.29347e-71 1.26886e-71 1.24198e-71 1.21587e-71 1.19477e-71 1.18353e-71 1.18648e-71 1.20591e-71 1.24077e-71 1.28646e-71 1.33585e-71 1.38162e-71 1.41888e-71 1.44705e-71 1.47009e-71 1.49488e-71 1.52849e-71 1.57565e-71 1.63735e-71 1.71083e-71 1.79033e-71 1.86798e-71 1.93445e-71 1.97951e-71 1.99293e-71 1.96579e-71 1.89217e-71 1.7706e-71 1.60497e-71 1.40451e-71 1.18278e-71 9.55672e-72 7.38865e-72 5.45341e-72 3.83532e-72 2.56659e-72 1.6328e-72 9.8701e-73 5.66881e-73 3.09426e-73 1.60602e-73 7.93237e-74 3.73174e-74 1.67389e-74 7.16694e-75 2.9325e-75 1.14803e-75 4.3053e-76 1.54846e-76 5.34747e-77 1.7752e-77 5.67123e-78 1.74544e-78 5.18059e-79 1.48435e-79 4.10951e-80 1.10038e-80 2.8522e-81 7.16258e-82 1.74406e-82 4.12096e-83 9.45586e-84 2.10854e-84 4.57231e-85 9.64829e-86 1.98243e-86 3.96863e-87 7.74516e-88 1.47438e-88 2.73909e-89 4.96877e-90 8.80536e-91 1.52514e-91 2.58305e-92 4.27965e-93 6.93936e-94 1.10165e-94 1.71298e-95 2.60981e-96 3.89738e-97 5.70687e-98 8.19658e-99 1.15509e-99 1.59722e-100 2.13179e-101 0 
0 4.42273e-146 6.04611e-145 8.1361e-144 1.08322e-142 1.42672e-141 1.85885e-140 2.39544e-139 3.05292e-138 3.84757e-137 4.79458e-136 5.90688e-135 7.1938e-134 8.65965e-133 1.03022e-131 1.21114e-130 1.40682e-129 1.61437e-128 1.82993e-127 2.04867e-126 2.26493e-125 2.47242e-124 2.66446e-123 2.83434e-122 2.97567e-121 3.08275e-120 3.15097e-119 3.17709e-118 3.15954e-117 3.09848e-116 2.99591e-115 2.85552e-114 2.68247e-113 2.48312e-112 2.26457e-111 2.03428e-110 1.79963e-109 1.5675e-108 1.34398e-107 1.13406e-106 9.41544e-106 7.68948e-105 6.1759e-104 4.87684e-103 3.78528e-102 2.88709e-101 2.16324e-100 1.59186e-99 1.15009e-98 8.15545e-98 5.67439e-97 3.87258e-96 2.59145e-95 1.69978e-94 1.09243e-93 6.87664e-93 4.23812e-92 2.55627e-91 1.50831e-90 8.70237e-90 4.90734e-89 2.70341e-88 1.45418e-87 7.63388e-87 3.90893e-86 1.95126e-85 9.48998e-85 4.49412e-84 2.071e-83 9.28076e-83 4.04165e-82 1.7092e-81 7.01391e-81 2.79075e-80 1.07577e-79 4.01409e-79 1.44855e-78 5.05076e-78 1.69994e-77 5.51727e-77 1.72494e-76 5.18924e-76 1.50046e-75 4.16514e-75 1.10865e-74 2.82608e-74 6.89063e-74 1.60499e-73 3.56684e-73 7.55381e-73 1.52272e-72 2.91869e-72 5.31469e-72 9.18728e-72 1.5071e-71 2.34605e-71 3.46727e-71 4.87071e-71 6.51625e-71 8.32658e-71 1.02028e-70 1.20484e-70 1.37925e-70 1.54011e-70 1.68735e-70 1.82245e-70 1.9465e-70 2.05899e-70 2.15792e-70 2.24085e-70 2.30604e-70 2.35287e-70 2.38149e-70 2.39224e-70 2.38548e-70 2.36206e-70 2.32421e-70 2.2761e-70 2.22361e-70 2.17298e-70 2.1289e-70 2.09272e-70 2.06181e-70 2.03057e-70 1.99282e-70 1.9447e-70 1.88667e-70 1.8237e-70 1.76353e-70 1.71366e-70 1.67853e-70 1.65789e-70 1.64718e-70 1.63959e-70 1.62911e-70 1.61321e-70 1.59427e-70 1.57904e-70 1.57634e-70 1.59407e-70 1.63652e-70 1.70302e-70 1.78803e-70 1.88245e-70 1.97525e-70 2.05501e-70 2.11128e-70 2.13569e-70 2.12315e-70 2.07299e-70 1.98961e-70 1.88249e-70 1.76518e-70 1.65312e-70 1.56078e-70 1.49867e-70 1.47097e-70 1.47481e-70 1.50145e-70 1.53915e-70 1.57677e-70 1.60673e-70 1.62624e-70 1.63646e-70 1.6403e-70 1.64021e-70 1.63697e-70 1.6298e-70 1.61738e-70 1.59876e-70 1.57396e-70 1.54405e-70 1.51135e-70 1.47956e-70 1.45383e-70 1.44006e-70 1.44352e-70 1.467e-70 1.50925e-70 1.56465e-70 1.62459e-70 1.68015e-70 1.72541e-70 1.75965e-70 1.78768e-70 1.81784e-70 1.8587e-70 1.91601e-70 1.99098e-70 2.08025e-70 2.17681e-70 2.27111e-70 2.35182e-70 2.40652e-70 2.42277e-70 2.38975e-70 2.30026e-70 2.15251e-70 1.95121e-70 1.70758e-70 1.43808e-70 1.16202e-70 8.98469e-71 6.63197e-71 4.66463e-71 3.12191e-71 1.98632e-71 1.20087e-71 6.89815e-72 3.7659e-72 1.95497e-72 9.65775e-73 4.54437e-73 2.03884e-73 8.73153e-74 3.57354e-74 1.39935e-74 5.24916e-75 1.88845e-75 6.52345e-76 2.16623e-76 6.92252e-77 2.13121e-77 6.32761e-78 1.81358e-78 5.0227e-79 1.34536e-79 3.48841e-80 8.76335e-81 2.13462e-81 5.04563e-82 1.15819e-82 2.5836e-83 5.60462e-84 1.18312e-84 2.43192e-85 4.8704e-86 9.5089e-87 1.81086e-87 3.36561e-88 6.10782e-89 1.08285e-89 1.87635e-90 3.17924e-91 5.26972e-92 8.54847e-93 1.3577e-93 2.11205e-94 3.21925e-95 4.80966e-96 7.0459e-97 1.01244e-97 1.42742e-98 1.9747e-99 2.63679e-100 0 