# vtk DataFile Version 3.0
Gray-Scott Simulation Output
ASCII
DATASET STRUCTURED_POINTS
DIMENSIONS 256 256 1
SPACING 1.0 1.0 1.0
ORIGIN 0 0 0
POINT_DATA 65536
SCALARS u double
LOOKUP_TABLE default
0 0 0 0 0 0 0 0 0 0 0 0 0 0 0 0 0 0 0 0 0 0 0 0 0 0 0 0 0 0 0 0 0 0 0 0 0 0 0 0 0 0 0 0 0 0 0 0 0 0 0 0 0 0 0 0 0 0 0 0 0 0 0 0 0 0 0 0 0 0 0 0 0 0 0 0 0 0 0 0 0 0 0 0 0 0 0 0 0 0 0 0 0 0 0 0 0 0 0 0 0 0 0 0 0 0 0 0 0 0 0 0 0 0 0 0 0 0 0 0 0 0 0 0 0 0 0 0 0 0 0 0 0 0 0 0 0 0 0 0 0 0 0 0 0 0 0 0 0 0 0 0 0 0 0 0 0 0 0 0 0 0 0 0 0 0 0 0 0 0 0 0 0 0 0 0 0 0 0 0 0 0 0 0 0 0 0 0 0 0 0 0 0 0 0 0 0 0 0 0 0 0 0 0 0 0 0 0 0 0 0 0 0 0 0 0 0 0 0 0 0 0 0 0 0 0 0 0 0 0 0 0 0 0 0 0 0 0 0 0 0 0 0 0 0 0 0 0 0 0 0 0 0 0 0 0 
0 7.40481e-106 4.66139e-105 2.83475e-104 1.706e-103 1.01657e-102 5.99734e-102 3.50272e-101 2.02506e-100 1.15881e-99 6.56286e-99 3.67819e-98 2.03983e-97 1.11926e-96 6.07571e-96 3.2625e-95 1.73279e-94 9.10192e-94 4.72789e-93 2.42829e-92 1.23305e-91 6.18957e-91 3.07105e-90 1.50594e-89 7.29742e-89 3.49397e-88 1.65272e-87 7.72244e-87 3.56391e-86 1.62427e-85 7.30949e-85 3.24753e-84 1.42427e-83 6.16516e-83 2.63354e-82 1.10998e-81 4.61532e-81 1.89291e-80 7.65646e-80 3.05369e-79 1.20073e-78 4.65389e-78 1.7777e-77 6.69106e-77 2.4811e-76 9.06199e-76 3.2595e-75 1.15435e-74 4.0244e-74 1.38085e-73 4.66216e-73 1.54856e-72 5.05909e-72 1.62527e-71 5.13318e-71 1.59351e-70 4.86103e-70 1.45681e-69 4.28812e-69 1.23941e-68 3.51669e-68 9.79291e-68 2.67567e-67 7.17102e-67 1.88468e-66 4.85601e-66 1.22628e-65 3.03416e-65 7.3537e-65 1.74528e-64 4.05499e-64 9.22045e-64 2.05129e-63 4.46359e-63 9.49731e-63 1.97538e-62 4.01523e-62 7.97369e-62 1.54661e-61 2.92931e-61 5.41627e-61 9.77437e-61 1.72122e-60 2.95708e-60 4.9556e-60 8.09989e-60 1.29113e-59 2.007e-59 3.04235e-59 4.49761e-59 6.4851e-59 9.1222e-59 1.25214e-58 1.67779e-58 2.19565e-58 2.80789e-58 3.51153e-58 4.29801e-58 5.15349e-58 6.05973e-58 6.99556e-58 7.93855e-58 8.86675e-58 9.76012e-58 1.06016e-57 1.13774e-57 1.20776e-57 1.26951e-57 1.32257e-57 1.36678e-57 1.40215e-57 1.4289e-57 1.4474e-57 1.4582e-57 1.462e-57 1.45963e-57 1.45199e-57 1.44001e-57 1.4246e-57 1.40656e-57 1.38655e-57 1.36509e-57 1.34259e-57 1.31936e-57 1.29569e-57 1.27192e-57 1.24844e-57 1.22571e-57 1.20424e-57 1.1845e-57 1.16696e-57 1.15199e-57 1.13991e-57 1.13098e-57 1.12548e-57 1.12368e-57 1.12584e-57 1.13218e-57 1.14275e-57 1.15734e-57 1.17539e-57 1.1959e-57 1.21748e-57 1.2384e-57 1.25676e-57 1.27071e-57 1.27865e-57 1.27953e-57 1.27292e-57 1.25916e-57 1.23932e-57 1.21508e-57 1.18851e-57 1.16181e-57 1.13705e-57 1.1159e-57 1.09943e-57 1.08811e-57 1.08174e-57 1.07963e-57 1.08074e-57 1.08385e-57 1.08775e-57 1.09138e-57 1.0939e-57 1.09471e-57 1.09349e-57 1.09016e-57 1.08488e-57 1.07805e-57 1.07023e-57 1.06216e-57 1.05472e-57 1.04879e-57 1.04525e-57 1.04482e-57 1.04802e-57 1.05511e-57 1.06607e-57 1.08066e-57 1.0985e-57 1.11916e-57 1.14223e-57 1.16736e-57 1.19426e-57 1.2226e-57 1.25191e-57 1.28142e-57 1.30995e-57 1.33584e-57 1.35698e-57 1.3709e-57 1.37494e-57 1.36656e-57 1.34358e-57 1.3045e-57 1.24877e-57 1.17687e-57 1.09045e-57 9.92161e-58 8.85505e-58 7.74481e-58 6.63238e-58 5.557e-58 4.55239e-58 3.64435e-58 2.84952e-58 2.1753e-58 1.62076e-58 1.17829e-58 8.35671e-59 5.78099e-59 3.90044e-59 2.56656e-59 1.64708e-59 1.03092e-59 6.29378e-60 3.74822e-60 2.17784e-60 1.23476e-60 6.83251e-61 3.69068e-61 1.94651e-61 1.00262e-61 5.04487e-62 2.48035e-62 1.1919e-62 5.59947e-63 2.57251e-63 1.15609e-63 5.0836e-64 2.18787e-64 9.21864e-65 3.80389e-65 1.53755e-65 6.08963e-66 2.36393e-66 8.99668e-67 3.35776e-67 1.22929e-67 4.41583e-68 1.55681e-68 5.38813e-69 1.83117e-69 6.11246e-70 2.0045e-70 6.45954e-71 2.04601e-71 6.37123e-72 1.95096e-72 5.87592e-73 1.74097e-73 5.07381e-74 1.44811e-74 3.80099e-75 0 
0 4.65664e-105 2.93105e-104 1.78225e-103 1.07246e-102 6.38978e-102 3.76927e-101 2.20117e-100 1.27244e-99 7.28056e-99 4.12285e-98 2.31043e-97 1.28118e-96 7.02912e-96 3.81528e-95 2.04851e-94 1.08791e-93 5.71403e-93 2.96783e-92 1.52418e-91 7.73896e-91 3.88444e-90 1.92718e-89 9.44959e-89 4.57874e-88 2.19213e-87 1.03686e-86 4.84454e-86 2.23564e-85 1.01885e-84 4.5848e-84 2.03689e-83 8.93289e-83 3.86659e-82 1.65163e-81 6.96106e-81 2.89436e-80 1.18706e-79 4.80137e-79 1.91495e-78 7.52969e-78 2.91842e-77 1.11479e-76 4.19597e-76 1.55592e-75 5.68297e-75 2.04415e-74 7.23958e-74 2.524e-73 8.6607e-73 2.92423e-72 9.71342e-72 3.17351e-71 1.01957e-70 3.22037e-70 9.9978e-70 3.05007e-69 9.14147e-69 2.69102e-68 7.7786e-68 2.2073e-67 6.14724e-67 1.67975e-66 4.50233e-66 1.18342e-65 3.04952e-65 7.70175e-65 1.90586e-64 4.61967e-64 1.09654e-63 2.54802e-63 5.79457e-63 1.28929e-62 2.80586e-62 5.97088e-62 1.24207e-61 2.525e-61 5.01495e-61 9.72845e-61 1.84281e-60 3.40775e-60 6.15045e-60 1.08319e-59 1.86113e-59 3.11926e-59 5.09888e-59 8.12834e-59 1.26361e-58 1.91559e-58 2.83203e-58 4.08366e-58 5.74441e-58 7.88507e-58 1.05655e-57 1.38264e-57 1.76814e-57 2.21112e-57 2.70619e-57 3.2446e-57 3.81483e-57 4.40354e-57 4.99658e-57 5.58015e-57 6.14163e-57 6.67029e-57 7.15758e-57 7.59715e-57 7.98468e-57 8.31761e-57 8.59486e-57 8.81664e-57 8.98427e-57 9.10018e-57 9.16781e-57 9.19156e-57 9.17659e-57 9.12862e-57 9.05349e-57 8.95685e-57 8.8437e-57 8.71825e-57 8.58375e-57 8.44268e-57 8.29703e-57 8.14866e-57 7.99964e-57 7.85246e-57 7.70999e-57 7.57536e-57 7.45167e-57 7.34173e-57 7.24791e-57 7.1722e-57 7.11629e-57 7.08186e-57 7.07062e-57 7.08424e-57 7.12405e-57 7.19037e-57 7.28192e-57 7.39512e-57 7.52379e-57 7.65913e-57 7.79032e-57 7.90543e-57 7.99285e-57 8.04266e-57 8.0481e-57 8.00658e-57 7.92022e-57 7.79572e-57 7.64362e-57 7.47693e-57 7.30952e-57 7.15429e-57 7.02168e-57 6.91853e-57 6.84764e-57 6.80786e-57 6.79479e-57 6.80188e-57 6.8215e-57 6.8461e-57 6.86898e-57 6.88482e-57 6.88991e-57 6.88222e-57 6.86129e-57 6.82814e-57 6.78516e-57 6.73597e-57 6.68525e-57 6.63837e-57 6.60103e-57 6.57865e-57 6.57581e-57 6.59575e-57 6.64008e-57 6.70871e-57 6.80016e-57 6.91203e-57 7.04157e-57 7.18621e-57 7.3438e-57 7.51248e-57 7.69021e-57 7.874e-57 8.05903e-57 8.23792e-57 8.40027e-57 8.53282e-57 8.62001e-57 8.64523e-57 8.59243e-57 8.44796e-57 8.20241e-57 7.85215e-57 7.40034e-57 6.8572e-57 6.23945e-57 5.56901e-57 4.87102e-57 4.17159e-57 3.49538e-57 2.8636e-57 2.2925e-57 1.79256e-57 1.36846e-57 1.01962e-57 7.41266e-58 5.2572e-58 3.63676e-58 2.45367e-58 1.61451e-58 1.03606e-58 6.48445e-59 3.95854e-59 2.35733e-59 1.36959e-59 7.76453e-60 4.29612e-60 2.32041e-60 1.2237e-60 6.30253e-61 3.17094e-61 1.55886e-61 7.49016e-62 3.51849e-62 1.6163e-62 7.26295e-63 3.19338e-63 1.37423e-63 5.78978e-64 2.38881e-64 9.6548e-65 3.82355e-65 1.48414e-65 5.64786e-66 2.10774e-66 7.71593e-67 2.77149e-67 9.7703e-68 3.38128e-68 1.14907e-68 3.83537e-69 1.25769e-69 4.05274e-70 1.28362e-70 3.997e-71 1.22389e-71 3.68601e-72 1.09209e-72 3.18269e-73 9.08352e-74 2.3842e-74 0 
0 2.82877e-104 1.78031e-103 1.08239e-102 6.5124e-102 3.87966e-101 2.2883e-100 1.33616e-99 7.72308e-99 4.41845e-98 2.50181e-97 1.40185e-96 7.77271e-96 4.26403e-95 2.31421e-94 1.24243e-93 6.59761e-93 3.46495e-92 1.79952e-91 9.24093e-91 4.69167e-90 2.35472e-89 1.16816e-88 5.72745e-88 2.77501e-87 1.32849e-86 6.28329e-86 2.93558e-85 1.35463e-84 6.17318e-84 2.77779e-83 1.23404e-82 5.41175e-82 2.3424e-81 1.00053e-80 4.21683e-80 1.75329e-79 7.19067e-79 2.90843e-78 1.15998e-77 4.56109e-77 1.76784e-76 6.75291e-76 2.54178e-75 9.42544e-75 3.44271e-74 1.23837e-73 4.38599e-73 1.52919e-72 5.24741e-72 1.77185e-71 5.88588e-71 1.92312e-70 6.17893e-70 1.95179e-69 6.0599e-69 1.84887e-68 5.54181e-68 1.63152e-67 4.71651e-67 1.33852e-66 3.72813e-66 1.01884e-65 2.73117e-65 7.17965e-65 1.85033e-64 4.67373e-64 1.1567e-63 2.80415e-63 6.65694e-63 1.54709e-62 3.5188e-62 7.83046e-62 1.70437e-61 3.62744e-61 7.54693e-61 1.53444e-60 3.04801e-60 5.91364e-60 1.12034e-59 2.07204e-59 3.74018e-59 6.58785e-59 1.13205e-58 1.89754e-58 3.10211e-58 4.94567e-58 7.68901e-58 1.16571e-57 1.72351e-57 2.48534e-57 3.4962e-57 4.79914e-57 6.43058e-57 8.41517e-57 1.07611e-56 1.34565e-56 1.64684e-56 1.97432e-56 2.32109e-56 2.679e-56 3.03943e-56 3.39399e-56 3.735e-56 4.05596e-56 4.35168e-56 4.61834e-56 4.85334e-56 5.05516e-56 5.22317e-56 5.35751e-56 5.45902e-56 5.52918e-56 5.57008e-56 5.5844e-56 5.57528e-56 5.54617e-56 5.50063e-56 5.44207e-56 5.37352e-56 5.29753e-56 5.21606e-56 5.13061e-56 5.04239e-56 4.95253e-56 4.86227e-56 4.77312e-56 4.68683e-56 4.6053e-56 4.53039e-56 4.46381e-56 4.40701e-56 4.36118e-56 4.32735e-56 4.30653e-56 4.29975e-56 4.30805e-56 4.33219e-56 4.3724e-56 4.4279e-56 4.49651e-56 4.57448e-56 4.6565e-56 4.73599e-56 4.80573e-56 4.85868e-56 4.88884e-56 4.8921e-56 4.8669e-56 4.81452e-56 4.73904e-56 4.64683e-56 4.54581e-56 4.44436e-56 4.35032e-56 4.27001e-56 4.20758e-56 4.16471e-56 4.14069e-56 4.13288e-56 4.13727e-56 4.14926e-56 4.16424e-56 4.17816e-56 4.18779e-56 4.19088e-56 4.18621e-56 4.1735e-56 4.15335e-56 4.12724e-56 4.09735e-56 4.06651e-56 4.03799e-56 4.01526e-56 4.00158e-56 3.99976e-56 4.01176e-56 4.03855e-56 4.08009e-56 4.13546e-56 4.20323e-56 4.2817e-56 4.36934e-56 4.46482e-56 4.56702e-56 4.67471e-56 4.78606e-56 4.89817e-56 5.00655e-56 5.10491e-56 5.1852e-56 5.23799e-56 5.25319e-56 5.22105e-56 5.13329e-56 4.98417e-56 4.77149e-56 4.49712e-56 4.16726e-56 3.79205e-56 3.38478e-56 2.96072e-56 2.53574e-56 2.12481e-56 1.74084e-56 1.39371e-56 1.08982e-56 8.31995e-57 6.19914e-57 4.50682e-57 3.1963e-57 2.21106e-57 1.49173e-57 9.81513e-58 6.29828e-58 3.94171e-58 2.40613e-58 1.43275e-58 8.32351e-59 4.71838e-59 2.61045e-59 1.40981e-59 7.4341e-60 3.82843e-60 1.92596e-60 9.46716e-61 4.54835e-61 2.13634e-61 9.81268e-62 4.40889e-62 1.93829e-62 8.34026e-63 3.51346e-63 1.44947e-63 5.85766e-64 2.31955e-64 9.00259e-65 3.4256e-65 1.27829e-65 4.6791e-66 1.68055e-66 5.92393e-67 2.04999e-67 6.966e-68 2.32496e-68 7.62352e-69 2.45644e-69 7.77981e-70 2.4224e-70 7.41713e-71 2.23374e-71 6.61792e-72 1.9286e-72 5.50417e-73 1.44468e-73 0 
0 1.70051e-103 1.07009e-102 6.50515e-102 3.91345e-101 2.3311e-100 1.37476e-99 8.02643e-99 4.6388e-98 2.65361e-97 1.50236e-96 8.41738e-96 4.66662e-95 2.5598e-94 1.38914e-93 7.45721e-93 3.95959e-92 2.07933e-91 1.0798e-90 5.5446e-90 2.8148e-89 1.41263e-88 7.00743e-88 3.43549e-87 1.66443e-86 7.96771e-86 3.76823e-85 1.76044e-84 8.12321e-84 3.70166e-83 1.6656e-82 7.3992e-82 3.24474e-81 1.4044e-80 5.99864e-80 2.52813e-79 1.05114e-78 4.31095e-78 1.74365e-77 6.95427e-77 2.73448e-76 1.05987e-75 4.04863e-75 1.52393e-74 5.65119e-74 2.06421e-73 7.42539e-73 2.62999e-72 9.17e-72 3.14685e-71 1.06263e-70 3.53017e-70 1.15351e-69 3.70647e-69 1.17089e-68 3.63568e-68 1.10935e-67 3.32548e-67 9.79128e-67 2.83083e-66 8.03465e-66 2.23812e-65 6.11717e-65 1.64002e-64 4.31183e-64 1.11139e-63 2.80763e-63 6.94962e-63 1.68501e-62 4.00074e-62 9.29922e-62 2.1154e-61 4.70817e-61 1.02494e-60 2.18173e-60 4.5398e-60 9.23172e-60 1.83407e-59 3.55894e-59 6.74342e-59 1.24735e-58 2.25187e-58 3.9669e-58 6.81757e-58 1.14289e-57 1.86861e-57 2.9794e-57 4.63247e-57 7.02372e-57 1.03852e-56 1.49765e-56 2.10686e-56 2.89209e-56 3.87525e-56 5.07115e-56 6.48463e-56 8.10851e-56 9.92271e-56 1.18949e-55 1.39828e-55 1.61371e-55 1.8306e-55 2.04387e-55 2.24892e-55 2.44184e-55 2.61952e-55 2.77967e-55 2.92074e-55 3.04186e-55 3.14264e-55 3.2232e-55 3.28405e-55 3.32609e-55 3.35058e-55 3.35912e-55 3.35362e-55 3.33614e-55 3.3088e-55 3.27367e-55 3.23255e-55 3.18698e-55 3.13812e-55 3.08689e-55 3.03399e-55 2.98011e-55 2.92599e-55 2.87253e-55 2.82079e-55 2.7719e-55 2.72699e-55 2.68708e-55 2.65303e-55 2.62557e-55 2.6053e-55 2.59284e-55 2.5888e-55 2.59379e-55 2.60829e-55 2.63243e-55 2.66573e-55 2.7069e-55 2.75368e-55 2.80289e-55 2.85057e-55 2.89241e-55 2.92416e-55 2.94223e-55 2.94417e-55 2.92902e-55 2.89758e-55 2.85227e-55 2.79693e-55 2.73632e-55 2.67546e-55 2.61906e-55 2.5709e-55 2.53349e-55 2.50783e-55 2.49348e-55 2.48886e-55 2.49156e-55 2.4988e-55 2.50784e-55 2.51622e-55 2.52202e-55 2.52388e-55 2.52107e-55 2.51342e-55 2.50131e-55 2.48559e-55 2.46761e-55 2.44904e-55 2.43187e-55 2.41816e-55 2.4099e-55 2.40874e-55 2.41589e-55 2.43192e-55 2.4568e-55 2.49001e-55 2.53064e-55 2.57771e-55 2.63028e-55 2.68755e-55 2.74885e-55 2.81345e-55 2.88024e-55 2.94748e-55 3.01249e-55 3.07149e-55 3.11964e-55 3.15128e-55 3.16035e-55 3.141e-55 3.08822e-55 2.99857e-55 2.87071e-55 2.70576e-55 2.50742e-55 2.28179e-55 2.03685e-55 1.78177e-55 1.5261e-55 1.27886e-55 1.04781e-55 8.38912e-56 6.5601e-56 5.00828e-56 3.73169e-56 2.71296e-56 1.92405e-56 1.33095e-56 8.97919e-57 5.9078e-57 3.79078e-57 2.37227e-57 1.448e-57 8.62157e-58 5.00821e-58 2.83876e-58 1.57039e-58 8.48022e-59 4.47123e-59 2.30235e-59 1.1581e-59 5.69203e-60 2.73432e-60 1.28414e-60 5.89763e-61 2.64951e-61 1.16467e-61 5.01085e-62 2.11065e-62 8.70641e-63 3.51808e-63 1.39295e-63 5.40572e-64 2.05673e-64 7.67407e-65 2.80878e-65 1.00871e-65 3.55538e-66 1.23024e-66 4.18012e-67 1.39505e-67 4.57401e-68 1.47373e-68 4.66719e-69 1.45314e-69 4.44914e-70 1.33984e-70 3.96939e-71 1.15672e-71 3.30114e-72 8.66433e-73 0 
0 1.01215e-102 6.36849e-102 3.87095e-101 2.32846e-100 1.38681e-99 8.17775e-99 4.77397e-98 2.75876e-97 1.57797e-96 8.93284e-96 5.00435e-95 2.77415e-94 1.52157e-93 8.2564e-93 4.43181e-92 2.35298e-91 1.23553e-90 6.41565e-90 3.29406e-89 1.67216e-88 8.39124e-88 4.16225e-87 2.04048e-86 9.88512e-86 4.73179e-85 2.23773e-84 1.04537e-83 4.82345e-83 2.19791e-82 9.88934e-82 4.39308e-81 1.92643e-80 8.33785e-80 3.5613e-79 1.50089e-78 6.24035e-78 2.55928e-77 1.03516e-76 4.12859e-76 1.62341e-75 6.29237e-75 2.4037e-74 9.04792e-74 3.35536e-73 1.22566e-72 4.40914e-72 1.56175e-71 5.44565e-71 1.86888e-70 6.31129e-70 2.09683e-69 6.85207e-69 2.2019e-68 6.95651e-68 2.16024e-67 6.59215e-67 1.97633e-66 5.8196e-66 1.68275e-65 4.77666e-65 1.33075e-64 3.63764e-64 9.75389e-64 2.56478e-63 6.61178e-63 1.67054e-62 4.13565e-62 1.00289e-61 2.38155e-61 5.5365e-61 1.25966e-60 2.80403e-60 6.1052e-60 1.2998e-59 2.7051e-59 5.50174e-59 1.09321e-58 2.12167e-58 4.02073e-58 7.43839e-58 1.34307e-57 2.36628e-57 4.06726e-57 6.81917e-57 1.11505e-56 1.77808e-56 2.76488e-56 4.19243e-56 6.19932e-56 8.94049e-56 1.25777e-55 1.72658e-55 2.31354e-55 3.02745e-55 3.87117e-55 4.84035e-55 5.92293e-55 7.09956e-55 8.34486e-55 9.62943e-55 1.09223e-54 1.21931e-54 1.34144e-54 1.45631e-54 1.56205e-54 1.65732e-54 1.74122e-54 1.81321e-54 1.87309e-54 1.92095e-54 1.95708e-54 1.98202e-54 1.99654e-54 2.00159e-54 1.9983e-54 1.9879e-54 1.97165e-54 1.95077e-54 1.92634e-54 1.89927e-54 1.87025e-54 1.83982e-54 1.8084e-54 1.77639e-54 1.74425e-54 1.7125e-54 1.68177e-54 1.65273e-54 1.62606e-54 1.60236e-54 1.58214e-54 1.56584e-54 1.55381e-54 1.54642e-54 1.54404e-54 1.54701e-54 1.55564e-54 1.56999e-54 1.58979e-54 1.61426e-54 1.64206e-54 1.67131e-54 1.69964e-54 1.7245e-54 1.74336e-54 1.75409e-54 1.75523e-54 1.74622e-54 1.72751e-54 1.70057e-54 1.66768e-54 1.63165e-54 1.59548e-54 1.56198e-54 1.53338e-54 1.51117e-54 1.49596e-54 1.48747e-54 1.48476e-54 1.4864e-54 1.49074e-54 1.49614e-54 1.50114e-54 1.5046e-54 1.50571e-54 1.50403e-54 1.49947e-54 1.49225e-54 1.48289e-54 1.47217e-54 1.4611e-54 1.45086e-54 1.44267e-54 1.43772e-54 1.43699e-54 1.44121e-54 1.45071e-54 1.46548e-54 1.4852e-54 1.50934e-54 1.53731e-54 1.56854e-54 1.60257e-54 1.63899e-54 1.67737e-54 1.71706e-54 1.75701e-54 1.79564e-54 1.83069e-54 1.8593e-54 1.87808e-54 1.88345e-54 1.8719e-54 1.84047e-54 1.78708e-54 1.71094e-54 1.61271e-54 1.49457e-54 1.36016e-54 1.21423e-54 1.06224e-54 9.09874e-55 7.6251e-55 6.24781e-55 5.00241e-55 3.9119e-55 2.98659e-55 2.22534e-55 1.61784e-55 1.14737e-55 7.93667e-56 5.35425e-56 3.52263e-56 2.26019e-56 1.41433e-56 8.63218e-57 5.13928e-57 2.9851e-57 1.69184e-57 9.35819e-58 5.05292e-58 2.66386e-58 1.37152e-58 6.898e-59 3.38991e-59 1.62823e-59 7.64576e-60 3.51098e-60 1.57711e-60 6.93172e-61 2.9819e-61 1.25586e-61 5.17978e-62 2.09278e-62 8.2852e-63 3.21492e-63 1.22305e-63 4.56294e-64 1.6699e-64 5.99646e-65 2.11336e-65 7.31202e-66 2.48426e-66 8.29012e-67 2.71791e-67 8.75639e-68 2.77289e-68 8.63292e-69 2.64301e-69 7.95891e-70 2.35778e-70 6.87051e-71 1.96069e-71 5.14596e-72 0 
0 5.96438e-102 3.75237e-101 2.28053e-100 1.37162e-99 8.16831e-99 4.81614e-98 2.81123e-97 1.62437e-96 9.29014e-96 5.25859e-95 2.94567e-94 1.63277e-93 8.95459e-93 4.85853e-92 2.6077e-91 1.38439e-90 7.26871e-90 3.77408e-89 1.93763e-88 9.83523e-88 4.9352e-87 2.44782e-86 1.19993e-85 5.81277e-85 2.7823e-84 1.31573e-83 6.14624e-83 2.83583e-82 1.29216e-81 5.81381e-81 2.58257e-80 1.13247e-79 4.9014e-79 2.09348e-78 8.82281e-78 3.66831e-77 1.50444e-76 6.0851e-76 2.42699e-75 9.54341e-75 3.69913e-74 1.41312e-73 5.31938e-73 1.97273e-72 7.20639e-72 2.59254e-71 9.18346e-71 3.20238e-70 1.0991e-69 3.71196e-69 1.23334e-68 4.03069e-68 1.29537e-67 4.0929e-67 1.27112e-66 3.87935e-66 1.16316e-65 3.42552e-65 9.90619e-65 2.81235e-64 7.83611e-64 2.14233e-63 5.74522e-63 1.51093e-62 3.89565e-62 9.84436e-62 2.4375e-61 5.9119e-61 1.40413e-60 3.2648e-60 7.42931e-60 1.65407e-59 3.60203e-59 7.67007e-59 1.59655e-58 3.2477e-58 6.45438e-58 1.25286e-57 2.37466e-57 4.39384e-57 7.9347e-57 1.39818e-56 2.40359e-56 4.03039e-56 6.59121e-56 1.05116e-55 1.6347e-55 2.47893e-55 3.66584e-55 5.28707e-55 7.4383e-55 1.0211e-54 1.36823e-54 1.79042e-54 2.28931e-54 2.86231e-54 3.50224e-54 4.19761e-54 4.93338e-54 5.69211e-54 6.45547e-54 7.20556e-54 7.92616e-54 8.60356e-54 9.22691e-54 9.78829e-54 1.02824e-53 1.07063e-53 1.10587e-53 1.13402e-53 1.15527e-53 1.16993e-53 1.17846e-53 1.18141e-53 1.17946e-53 1.17333e-53 1.16376e-53 1.15147e-53 1.1371e-53 1.12116e-53 1.10409e-53 1.08619e-53 1.0677e-53 1.04888e-53 1.02996e-53 1.01129e-53 9.93207e-54 9.76126e-54 9.60437e-54 9.46498e-54 9.3461e-54 9.25024e-54 9.17955e-54 9.13614e-54 9.12216e-54 9.13977e-54 9.19061e-54 9.27513e-54 9.39168e-54 9.53574e-54 9.69942e-54 9.87155e-54 1.00383e-53 1.01846e-53 1.02956e-53 1.03587e-53 1.03654e-53 1.03122e-53 1.0202e-53 1.00434e-53 9.8497e-54 9.63759e-54 9.42472e-54 9.22754e-54 9.05933e-54 8.92879e-54 8.83941e-54 8.78969e-54 8.77399e-54 8.78387e-54 8.80961e-54 8.84154e-54 8.8711e-54 8.89152e-54 8.89808e-54 8.88819e-54 8.86129e-54 8.81867e-54 8.76339e-54 8.70008e-54 8.63471e-54 8.57417e-54 8.52574e-54 8.49635e-54 8.4919e-54 8.51653e-54 8.57232e-54 8.65916e-54 8.77514e-54 8.91718e-54 9.08176e-54 9.26557e-54 9.46584e-54 9.68021e-54 9.90606e-54 1.01396e-53 1.03748e-53 1.06021e-53 1.08084e-53 1.09767e-53 1.10873e-53 1.11187e-53 1.10505e-53 1.0865e-53 1.05502e-53 1.0101e-53 9.52156e-54 8.82461e-54 8.03151e-54 7.17027e-54 6.27316e-54 5.37368e-54 4.50362e-54 3.69034e-54 2.95486e-54 2.31079e-54 1.76424e-54 1.31457e-54 9.55702e-55 6.77773e-55 4.68821e-55 3.16264e-55 2.08064e-55 1.3349e-55 8.3526e-56 5.09748e-56 3.03457e-56 1.76242e-56 9.98766e-57 5.52388e-57 2.98224e-57 1.57201e-57 8.09264e-58 4.06961e-58 1.99967e-58 9.60339e-59 4.50889e-59 2.07022e-59 9.29796e-60 4.08608e-60 1.75752e-60 7.40097e-61 3.0521e-61 1.23297e-61 4.88064e-62 1.8936e-62 7.20294e-63 2.68695e-63 9.83229e-64 3.5303e-64 1.24407e-64 4.30391e-65 1.46211e-65 4.87871e-66 1.59934e-66 5.15224e-67 1.63144e-67 5.07884e-68 1.55481e-68 4.68172e-69 1.38685e-69 4.04106e-70 1.15318e-70 3.02648e-71 0 
0 3.47937e-101 2.18873e-100 1.33005e-99 7.99866e-99 4.76284e-98 2.80792e-97 1.63884e-96 9.46841e-96 5.41465e-95 3.0646e-94 1.71651e-93 9.51362e-93 5.21709e-92 2.83041e-91 1.51903e-90 8.06361e-90 4.23347e-89 2.19795e-88 1.12836e-87 5.72706e-87 2.87359e-86 1.42519e-85 6.98597e-85 3.384e-84 1.61969e-83 7.65903e-83 3.57767e-82 1.65065e-81 7.52108e-81 3.38387e-80 1.50312e-79 6.59115e-79 2.85266e-78 1.21842e-77 5.13492e-77 2.13498e-76 8.75605e-76 3.54165e-75 1.41258e-74 5.5547e-74 2.15312e-73 8.22551e-73 3.09645e-72 1.1484e-71 4.19531e-71 1.50938e-70 5.34695e-70 1.86467e-69 6.40028e-69 2.16173e-68 7.18323e-68 2.34778e-67 7.54599e-67 2.38451e-66 7.40633e-66 2.26061e-65 6.77895e-65 1.99666e-64 5.77488e-64 1.63971e-63 4.56943e-63 1.24943e-62 3.35121e-62 8.81474e-62 2.27309e-61 5.7451e-61 1.42276e-60 3.45135e-60 8.19873e-60 1.90667e-59 4.33958e-59 9.66351e-59 2.10479e-58 4.48271e-58 9.33267e-58 1.8988e-57 3.7743e-57 7.32758e-57 1.38911e-56 2.57072e-56 4.64314e-56 8.18302e-56 1.40694e-55 2.35951e-55 3.85919e-55 6.15534e-55 9.57337e-55 1.45188e-54 2.14721e-54 3.09701e-54 4.35732e-54 5.9817e-54 8.01528e-54 1.04883e-53 1.34104e-53 1.67661e-53 2.0513e-53 2.45836e-53 2.88894e-53 3.33284e-53 3.77928e-53 4.21779e-53 4.63888e-53 5.03456e-53 5.3985e-53 5.72612e-53 6.01436e-53 6.2615e-53 6.46693e-53 6.63094e-53 6.75467e-53 6.84002e-53 6.88961e-53 6.90674e-53 6.89528e-53 6.85947e-53 6.80366e-53 6.732e-53 6.64821e-53 6.55537e-53 6.45589e-53 6.35157e-53 6.24387e-53 6.13416e-53 6.02397e-53 5.91514e-53 5.8098e-53 5.71028e-53 5.61888e-53 5.53768e-53 5.46844e-53 5.41262e-53 5.37147e-53 5.34622e-53 5.33812e-53 5.34842e-53 5.37809e-53 5.42739e-53 5.49536e-53 5.57935e-53 5.67479e-53 5.77515e-53 5.87238e-53 5.95767e-53 6.02236e-53 6.05912e-53 6.06294e-53 6.03191e-53 5.96762e-53 5.87508e-53 5.76212e-53 5.63845e-53 5.51435e-53 5.39943e-53 5.30144e-53 5.22543e-53 5.17345e-53 5.1446e-53 5.13559e-53 5.14149e-53 5.15661e-53 5.17533e-53 5.19263e-53 5.20457e-53 5.20841e-53 5.20263e-53 5.18689e-53 5.16197e-53 5.12965e-53 5.09263e-53 5.05438e-53 5.01895e-53 4.99057e-53 4.9733e-53 4.97058e-53 4.98484e-53 5.01728e-53 5.06785e-53 5.13542e-53 5.21821e-53 5.31413e-53 5.42127e-53 5.53801e-53 5.66296e-53 5.7946e-53 5.93074e-53 6.0678e-53 6.20031e-53 6.32057e-53 6.4187e-53 6.48311e-53 6.50137e-53 6.46147e-53 6.35311e-53 6.16917e-53 5.90681e-53 5.56823e-53 5.16097e-53 4.69745e-53 4.19402e-53 3.66954e-53 3.14359e-53 2.63477e-53 2.15909e-53 1.72886e-53 1.35207e-53 1.0323e-53 7.69194e-54 5.59207e-54 3.96577e-54 2.74307e-54 1.85038e-54 1.21726e-54 7.80918e-55 4.88591e-55 2.98153e-55 1.77475e-55 1.03063e-55 5.83992e-56 3.22949e-56 1.74331e-56 9.1882e-57 4.72937e-57 2.37795e-57 1.16828e-57 5.60979e-58 2.63346e-58 1.20895e-58 5.42893e-59 2.38544e-59 1.02588e-59 4.31937e-60 1.78102e-60 7.19385e-61 2.84724e-61 1.10453e-61 4.20088e-62 1.56687e-62 5.73291e-63 2.05816e-63 7.25206e-64 2.50861e-64 8.52129e-65 2.84306e-65 9.31926e-66 3.0019e-66 9.5046e-67 2.95865e-67 9.05679e-68 2.72692e-68 8.07737e-69 2.35347e-69 6.71564e-70 1.76243e-70 0 
0 2.00915e-100 1.26373e-99 7.67857e-99 4.6172e-98 2.74903e-97 1.62051e-96 9.45706e-96 5.46328e-95 3.12394e-94 1.76793e-93 9.9014e-93 5.48727e-92 3.00885e-91 1.63224e-90 8.75923e-90 4.6494e-89 2.44079e-88 1.26713e-87 6.50461e-87 3.30126e-86 1.65633e-85 8.21432e-85 4.02626e-84 1.95023e-83 9.334e-83 4.4136e-82 2.0616e-81 9.51147e-81 4.33372e-80 1.94978e-79 8.66082e-79 3.7977e-78 1.64364e-77 7.02026e-77 2.95864e-76 1.23014e-75 5.04518e-75 2.04072e-74 8.13958e-74 3.20082e-73 1.24076e-72 4.74022e-72 1.78452e-71 6.61868e-71 2.41808e-70 8.70025e-70 3.08228e-69 1.07499e-68 3.69007e-68 1.24646e-67 4.14226e-67 1.354e-66 4.35237e-66 1.37549e-65 4.27283e-65 1.30435e-64 3.9119e-64 1.15237e-63 3.33344e-63 9.46633e-63 2.63842e-62 7.21548e-62 1.93565e-61 5.09225e-61 1.31339e-60 3.32011e-60 8.22368e-60 1.99529e-59 4.74074e-59 1.10271e-58 2.51025e-58 5.591e-58 1.218e-57 2.59458e-57 5.40278e-57 1.09945e-56 2.18583e-56 4.24447e-56 8.04785e-56 1.48962e-55 2.69097e-55 4.74333e-55 8.15668e-55 1.36812e-54 2.23799e-54 3.57e-54 5.55303e-54 8.42246e-54 1.24571e-53 1.79685e-53 2.52818e-53 3.47077e-53 4.65074e-53 6.08562e-53 7.78082e-53 9.72723e-53 1.19002e-52 1.42603e-52 1.67561e-52 1.93282e-52 2.19141e-52 2.44531e-52 2.68901e-52 2.91791e-52 3.12835e-52 3.31769e-52 3.4842e-52 3.62691e-52 3.74549e-52 3.84012e-52 3.91147e-52 3.96067e-52 3.98922e-52 3.99905e-52 3.99238e-52 3.97167e-52 3.93943e-52 3.89805e-52 3.84969e-52 3.79611e-52 3.73869e-52 3.67849e-52 3.61635e-52 3.55304e-52 3.48946e-52 3.42666e-52 3.36588e-52 3.30846e-52 3.25572e-52 3.20888e-52 3.16894e-52 3.13675e-52 3.11303e-52 3.09847e-52 3.09383e-52 3.0998e-52 3.11694e-52 3.14542e-52 3.18467e-52 3.23318e-52 3.28829e-52 3.34624e-52 3.40238e-52 3.45162e-52 3.48896e-52 3.51017e-52 3.51235e-52 3.49441e-52 3.45726e-52 3.4038e-52 3.33856e-52 3.26714e-52 3.1955e-52 3.12917e-52 3.07263e-52 3.0288e-52 2.99886e-52 2.98229e-52 2.97717e-52 2.98066e-52 2.98947e-52 3.00033e-52 3.01036e-52 3.01728e-52 3.0195e-52 3.01615e-52 3.00703e-52 2.9926e-52 2.97388e-52 2.95244e-52 2.93028e-52 2.90974e-52 2.89327e-52 2.88322e-52 2.88158e-52 2.88976e-52 2.90844e-52 2.9376e-52 2.97659e-52 3.02437e-52 3.07975e-52 3.1416e-52 3.20899e-52 3.28111e-52 3.35711e-52 3.43569e-52 3.51481e-52 3.59131e-52 3.66074e-52 3.71739e-52 3.75457e-52 3.76508e-52 3.74197e-52 3.67928e-52 3.57287e-52 3.42107e-52 3.22516e-52 2.98947e-52 2.72117e-52 2.42972e-52 2.12602e-52 1.82143e-52 1.52671e-52 1.25115e-52 1.00188e-52 7.83557e-53 5.98257e-53 4.45781e-53 3.24083e-53 2.29828e-53 1.58964e-53 1.07226e-53 7.05339e-54 4.52468e-54 2.83068e-54 1.7272e-54 1.028e-54 5.96909e-55 3.38188e-55 1.86994e-55 1.00927e-55 5.31864e-56 2.73721e-56 1.37607e-56 6.75951e-57 3.24525e-57 1.5232e-57 6.99149e-58 3.1391e-58 1.37908e-58 5.92991e-59 2.49634e-59 1.02916e-59 4.15634e-60 1.64478e-60 6.37966e-61 2.42605e-61 9.04758e-62 3.30991e-62 1.18813e-62 4.18593e-63 1.44781e-63 4.91738e-64 1.64047e-64 5.37672e-65 1.73177e-65 5.48259e-66 1.70651e-66 5.2234e-67 1.5726e-67 4.65784e-68 1.35705e-68 3.87212e-69 1.01614e-69 0 
0 1.1483e-99 7.22189e-99 4.38762e-98 2.63803e-97 1.57048e-96 9.25675e-96 5.40155e-95 3.12013e-94 1.78394e-93 1.00949e-92 5.65318e-92 3.13267e-91 1.7176e-90 9.31691e-90 4.99941e-89 2.65349e-88 1.3929e-87 7.23075e-87 3.71155e-86 1.88359e-85 9.44997e-85 4.68633e-84 2.29691e-83 1.11252e-82 5.32443e-82 2.51758e-81 1.17594e-80 5.42519e-80 2.47183e-79 1.11208e-78 4.93976e-78 2.16603e-77 9.37457e-77 4.00405e-76 1.68749e-75 7.01637e-75 2.87768e-74 1.16402e-73 4.64294e-73 1.82587e-72 7.07803e-72 2.70424e-71 1.0181e-70 3.77633e-70 1.37974e-69 4.96468e-69 1.759e-68 6.13528e-68 2.10623e-67 7.11528e-67 2.36482e-66 7.73086e-66 2.48534e-65 7.85548e-65 2.44054e-64 7.45117e-64 2.23502e-63 6.5849e-63 1.9051e-62 5.411e-62 1.50839e-61 4.12581e-61 1.107e-60 2.9128e-60 7.51406e-60 1.89985e-59 4.7067e-59 1.1422e-58 2.71439e-58 6.31501e-58 1.43787e-57 3.2032e-57 6.97967e-57 1.48711e-56 3.09732e-56 6.30424e-56 1.25361e-55 2.43477e-55 4.61742e-55 8.54827e-55 1.54451e-54 2.72296e-54 4.68322e-54 7.85642e-54 1.28535e-53 2.05063e-53 3.19007e-53 4.83898e-53 7.15762e-53 1.03251e-52 1.45282e-52 1.99453e-52 2.67264e-52 3.49717e-52 4.47117e-52 5.58933e-52 6.83738e-52 8.19259e-52 9.62531e-52 1.11013e-51 1.25847e-51 1.40405e-51 1.54373e-51 1.67485e-51 1.79535e-51 1.90371e-51 1.99897e-51 2.08057e-51 2.14834e-51 2.2024e-51 2.24315e-51 2.27123e-51 2.2875e-51 2.29308e-51 2.28924e-51 2.27738e-51 2.25894e-51 2.23528e-51 2.20763e-51 2.177e-51 2.14419e-51 2.1098e-51 2.07428e-51 2.03811e-51 2.00178e-51 1.96589e-51 1.93116e-51 1.89835e-51 1.86822e-51 1.84146e-51 1.81865e-51 1.80027e-51 1.78672e-51 1.77842e-51 1.77578e-51 1.7792e-51 1.78902e-51 1.80531e-51 1.82776e-51 1.8555e-51 1.88701e-51 1.92014e-51 1.95225e-51 1.9804e-51 2.00174e-51 2.01386e-51 2.0151e-51 2.00482e-51 1.98357e-51 1.95298e-51 1.91567e-51 1.87483e-51 1.83387e-51 1.79596e-51 1.76365e-51 1.73863e-51 1.72156e-51 1.71213e-51 1.70925e-51 1.71129e-51 1.71637e-51 1.72261e-51 1.72838e-51 1.73234e-51 1.73362e-51 1.73169e-51 1.72647e-51 1.71819e-51 1.70745e-51 1.69515e-51 1.68244e-51 1.67064e-51 1.66118e-51 1.65539e-51 1.65441e-51 1.65905e-51 1.66971e-51 1.68636e-51 1.70864e-51 1.73595e-51 1.76761e-51 1.80297e-51 1.84149e-51 1.88272e-51 1.92616e-51 1.97108e-51 2.01631e-51 2.06005e-51 2.09975e-51 2.13214e-51 2.15339e-51 2.15938e-51 2.14613e-51 2.11022e-51 2.04926e-51 1.96229e-51 1.85003e-51 1.71495e-51 1.56115e-51 1.39405e-51 1.2199e-51 1.0452e-51 8.76138e-52 7.18041e-52 5.75015e-52 4.49725e-52 3.43379e-52 2.55865e-52 1.86013e-52 1.3191e-52 9.12342e-53 6.15375e-53 4.04769e-53 2.59634e-53 1.62415e-53 9.90906e-54 5.89704e-54 3.42369e-54 1.93948e-54 1.07224e-54 5.78642e-55 3.04884e-55 1.56882e-55 7.88559e-56 3.87289e-56 1.85906e-56 8.72429e-57 4.00375e-57 1.79733e-57 7.89473e-58 3.39408e-58 1.42858e-58 5.88861e-59 2.37776e-59 9.40797e-60 3.64852e-60 1.38724e-60 5.17274e-61 1.89209e-61 6.79092e-62 2.3922e-62 8.27298e-63 2.80951e-63 9.37155e-64 3.07123e-64 9.89095e-65 3.13105e-65 9.74474e-66 2.98247e-66 8.9785e-67 2.65911e-67 7.74669e-68 2.21024e-68 5.79989e-69 0 