# vtk DataFile Version 3.0
Gray-Scott Simulation Output
ASCII
DATASET STRUCTURED_POINTS
DIMENSIONS 256 256 1
SPACING 1.0 1.0 1.0
ORIGIN 0 0 0
POINT_DATA 65536
SCALARS u double
LOOKUP_TABLE default
0 0 0 0 0 0 0 0 0 0 0 0 0 0 0 0 0 0 0 0 0 0 0 0 0 0 0 0 0 0 0 0 0 0 0 0 0 0 0 0 0 0 0 0 0 0 0 0 0 0 0 0 0 0 0 0 0 0 0 0 0 0 0 0 0 0 0 0 0 0 0 0 0 0 0 0 0 0 0 0 0 0 0 0 0 0 0 0 0 0 0 0 0 0 0 0 0 0 0 0 0 0 0 0 0 0 0 0 0 0 0 0 0 0 0 0 0 0 0 0 0 0 0 0 0 0 0 0 0 0 0 0 0 0 0 0 0 0 0 0 0 0 0 0 0 0 0 0 0 0 0 0 0 0 0 0 0 0 0 0 0 0 0 0 0 0 0 0 0 0 0 0 0 0 0 0 0 0 0 0 0 0 0 0 0 0 0 0 0 0 0 0 0 0 0 0 0 0 0 0 0 0 0 0 0 0 0 0 0 0 0 0 0 0 0 0 0 0 0 0 0 0 0 0 0 0 0 0 0 0 0 0 0 0 0 0 0 0 0 0 0 0 0 0 0 0 0 0 0 0 0 0 0 0 0 0 
0 3.86024e-118 2.99137e-117 2.25787e-116 1.68664e-115 1.24714e-114 9.12716e-114 6.61069e-113 4.73809e-112 3.36018e-111 2.35765e-110 1.63648e-109 1.12359e-108 7.63001e-108 5.12408e-107 3.40275e-106 2.23418e-105 1.4502e-104 9.30491e-104 5.90084e-103 3.69811e-102 2.29011e-101 1.40116e-100 8.46863e-100 5.05565e-99 2.9807e-98 1.73531e-97 9.97445e-97 5.65967e-96 3.1697e-95 1.75187e-94 9.55382e-94 5.14009e-93 2.7278e-92 1.42768e-91 7.36794e-91 3.74875e-90 1.88006e-89 9.29223e-89 4.52534e-88 2.1711e-87 1.02593e-86 4.77399e-86 2.18713e-85 9.86297e-85 4.37707e-84 1.91119e-83 8.20864e-83 3.46721e-82 1.43988e-81 5.87758e-81 2.3577e-80 9.29143e-80 3.59636e-79 1.36681e-78 5.09916e-78 1.86683e-77 6.70497e-77 2.3618e-76 8.15659e-76 2.7609e-75 9.15643e-75 2.97433e-74 9.45993e-74 2.94489e-73 8.9696e-73 2.67202e-72 7.78219e-72 2.21509e-71 6.15939e-71 1.67249e-70 4.43291e-70 1.14639e-69 2.89144e-69 7.10956e-69 1.70346e-68 3.9755e-68 9.03302e-68 1.99741e-67 4.29642e-67 8.98599e-67 1.82669e-66 3.60769e-66 6.91976e-66 1.28853e-65 2.32863e-65 4.08298e-65 6.94421e-65 1.1454e-64 1.83201e-64 2.84134e-64 4.27339e-64 6.23386e-64 8.82303e-64 1.21217e-63 1.61761e-63 2.09858e-63 2.64956e-63 3.25967e-63 3.91354e-63 4.5929e-63 5.27861e-63 5.95249e-63 6.59881e-63 7.20507e-63 7.76202e-63 8.26323e-63 8.70444e-63 9.08288e-63 9.39694e-63 9.64598e-63 9.83047e-63 9.95219e-63 1.00145e-62 1.00226e-62 9.98313e-63 9.90432e-63 9.79496e-63 9.66365e-63 9.5178e-63 9.36287e-63 9.20196e-63 9.0362e-63 8.86553e-63 8.68987e-63 8.51032e-63 8.32972e-63 8.15263e-63 7.9846e-63 7.83105e-63 7.69618e-63 7.5824e-63 7.49052e-63 7.42056e-63 7.37291e-63 7.34932e-63 7.35329e-63 7.38953e-63 7.4626e-63 7.57503e-63 7.72549e-63 7.90746e-63 8.10886e-63 8.31276e-63 8.49918e-63 8.64758e-63 8.73969e-63 8.76233e-63 8.70954e-63 8.58379e-63 8.39608e-63 8.16453e-63 7.91203e-63 7.66289e-63 7.43938e-63 7.25859e-63 7.13039e-63 7.05671e-63 7.03231e-63 7.04669e-63 7.08663e-63 7.13868e-63 7.19111e-63 7.23496e-63 7.26424e-63 7.27556e-63 7.26752e-63 7.24022e-63 7.195e-63 7.13458e-63 7.06328e-63 6.98717e-63 6.91399e-63 6.85254e-63 6.81174e-63 6.79932e-63 6.82056e-63 6.87739e-63 6.96814e-63 7.08811e-63 7.23098e-63 7.39049e-63 7.56205e-63 7.74376e-63 7.93628e-63 8.14178e-63 8.362e-63 8.596e-63 8.83822e-63 9.07717e-63 9.29531e-63 9.46996e-63 9.57527e-63 9.58502e-63 9.47587e-63 9.23058e-63 8.84089e-63 8.30948e-63 7.65057e-63 6.88914e-63 6.05855e-63 5.197e-63 4.34342e-63 3.53329e-63 2.7953e-63 2.14916e-63 1.60487e-63 1.16342e-63 8.18467e-64 5.58619e-64 3.69834e-64 2.37486e-64 1.47914e-64 8.93616e-65 5.23741e-65 2.97844e-65 1.64388e-65 8.80795e-66 4.58292e-66 2.31641e-66 1.13777e-66 5.43278e-67 2.52284e-67 1.13982e-67 5.01228e-68 2.14622e-68 8.9523e-69 3.63914e-69 1.44228e-69 5.57532e-70 2.10299e-70 7.74341e-71 2.78438e-71 9.78137e-72 3.35826e-72 1.1273e-72 3.70118e-73 1.18898e-73 3.73852e-74 1.15098e-74 3.4708e-75 1.02549e-75 2.96971e-76 8.43175e-77 2.34789e-77 6.41399e-78 1.71948e-78 4.52489e-79 1.1692e-79 2.96724e-80 7.39812e-81 1.81261e-81 4.36477e-82 1.03089e-82 2.28268e-83 0 
0 2.98881e-117 2.31558e-116 1.74739e-115 1.30502e-114 9.64743e-114 7.05892e-113 5.11157e-112 3.66283e-111 2.59706e-110 1.82183e-109 1.26429e-108 8.67866e-108 5.89224e-107 3.95623e-106 2.62668e-105 1.72428e-104 1.119e-103 7.17842e-103 4.55141e-102 2.85186e-101 1.76572e-100 1.08012e-99 6.52704e-99 3.89584e-98 2.29649e-97 1.33673e-96 7.68211e-96 4.3582e-95 2.4404e-94 1.34857e-93 7.35318e-93 3.95548e-92 2.09881e-91 1.0983e-90 5.66725e-90 2.88302e-89 1.44567e-88 7.14425e-88 3.47879e-87 1.66877e-86 7.88461e-86 3.66849e-85 1.68046e-84 7.57718e-84 3.36228e-83 1.46793e-82 6.30413e-82 2.6625e-81 1.10558e-80 4.51256e-80 1.80998e-79 7.13232e-79 2.76042e-78 1.04903e-77 3.91333e-77 1.43259e-76 5.14504e-76 1.81222e-75 6.25824e-75 2.11823e-74 7.02474e-74 2.28179e-73 7.25706e-73 2.25907e-72 6.88055e-72 2.04966e-71 5.9695e-71 1.69912e-70 4.72464e-70 1.2829e-69 3.40034e-69 8.79368e-69 2.21797e-68 5.45372e-68 1.30674e-67 3.04973e-67 6.9297e-67 1.53236e-66 3.29621e-66 6.89429e-66 1.40154e-65 2.76812e-65 5.30963e-65 9.88747e-65 1.78692e-64 3.13329e-64 5.32919e-64 8.7904e-64 1.40603e-63 2.18072e-63 3.27989e-63 4.78467e-63 6.772e-63 9.30384e-63 1.24157e-62 1.61071e-62 2.03356e-62 2.50174e-62 3.00343e-62 3.52462e-62 4.05057e-62 4.56732e-62 5.06283e-62 5.52748e-62 5.9542e-62 6.33809e-62 6.67592e-62 6.9656e-62 7.20593e-62 7.39646e-62 7.53755e-62 7.63062e-62 7.67825e-62 7.68436e-62 7.65415e-62 7.59384e-62 7.51018e-62 7.40974e-62 7.29819e-62 7.17968e-62 7.05662e-62 6.92983e-62 6.79927e-62 6.6649e-62 6.52753e-62 6.38936e-62 6.25388e-62 6.12534e-62 6.00788e-62 5.90471e-62 5.8177e-62 5.74746e-62 5.69399e-62 5.6576e-62 5.63963e-62 5.64275e-62 5.67056e-62 5.72654e-62 5.81262e-62 5.92778e-62 6.06703e-62 6.22112e-62 6.3771e-62 6.51969e-62 6.63316e-62 6.70356e-62 6.72078e-62 6.68028e-62 6.58397e-62 6.44024e-62 6.26299e-62 6.06972e-62 5.87905e-62 5.70802e-62 5.5697e-62 5.47166e-62 5.41536e-62 5.3968e-62 5.40791e-62 5.43859e-62 5.47854e-62 5.51877e-62 5.55241e-62 5.57489e-62 5.5836e-62 5.57748e-62 5.55659e-62 5.52196e-62 5.47566e-62 5.421e-62 5.36264e-62 5.30648e-62 5.25927e-62 5.22785e-62 5.21814e-62 5.23421e-62 5.27753e-62 5.34683e-62 5.43854e-62 5.54779e-62 5.66981e-62 5.80108e-62 5.94012e-62 6.08745e-62 6.24472e-62 6.41324e-62 6.59231e-62 6.77764e-62 6.96045e-62 7.12731e-62 7.26086e-62 7.34129e-62 7.34855e-62 7.26473e-62 7.07664e-62 6.77792e-62 6.37061e-62 5.86559e-62 5.28198e-62 4.64532e-62 3.9849e-62 3.33053e-62 2.70943e-62 2.1436e-62 1.64815e-62 1.23079e-62 8.92264e-63 6.27721e-63 4.28438e-63 2.83652e-63 1.82147e-63 1.13448e-63 6.8539e-64 4.01702e-64 2.28441e-64 1.26082e-64 6.75548e-65 3.51496e-65 1.77661e-65 8.72624e-66 4.1667e-66 1.9349e-66 8.74182e-67 3.84417e-67 1.64605e-67 6.86601e-68 2.79107e-68 1.10618e-68 4.27615e-69 1.61298e-69 5.93925e-70 2.13569e-70 7.50277e-71 2.57603e-71 8.64755e-72 2.8393e-72 9.12147e-73 2.86821e-73 8.83087e-74 2.66312e-74 7.86899e-75 2.27893e-75 6.47092e-76 1.80202e-76 4.92316e-77 1.31992e-77 3.47376e-78 8.97675e-79 2.27838e-79 5.6812e-80 1.39209e-80 3.35253e-81 7.91903e-82 1.75368e-82 0 
0 2.25391e-116 1.74582e-115 1.31713e-114 9.83459e-114 7.26864e-113 5.31719e-112 3.84947e-111 2.75783e-110 1.95496e-109 1.37109e-108 9.51286e-108 6.52867e-107 4.43159e-106 2.97488e-105 1.97471e-104 1.29603e-103 8.40914e-103 5.39338e-102 3.41894e-101 2.14185e-100 1.32586e-99 8.10891e-99 4.89921e-98 2.92367e-97 1.7231e-96 1.0028e-95 5.76198e-95 3.2683e-94 1.82979e-93 1.01097e-92 5.51149e-92 2.9643e-91 1.57262e-90 8.22823e-90 4.24512e-89 2.15924e-88 1.08257e-87 5.34913e-87 2.60431e-86 1.24912e-85 5.90105e-85 2.74524e-84 1.25738e-83 5.66886e-83 2.51519e-82 1.09798e-81 4.71485e-81 1.99107e-80 8.26698e-80 3.37395e-79 1.35317e-78 5.33176e-78 2.06339e-77 7.84082e-77 2.92476e-76 1.07063e-75 3.84484e-75 1.35418e-74 4.67624e-74 1.5827e-73 5.24855e-73 1.70479e-72 5.42179e-72 1.68772e-71 5.14029e-71 1.53123e-70 4.45958e-70 1.26934e-69 3.52959e-69 9.58413e-69 2.5403e-68 6.56965e-68 1.65705e-67 4.07458e-67 9.76323e-67 2.27865e-66 5.17782e-66 1.14501e-65 2.4631e-65 5.15199e-65 1.04739e-64 2.06876e-64 3.96833e-64 7.39009e-64 1.33564e-63 2.34209e-63 3.98366e-63 6.57123e-63 1.05111e-62 1.6303e-62 2.4521e-62 3.57716e-62 5.06302e-62 6.95597e-62 9.28253e-62 1.20422e-61 1.52031e-61 1.87027e-61 2.24522e-61 2.63468e-61 3.02762e-61 3.4136e-61 3.78359e-61 4.13045e-61 4.44888e-61 4.73526e-61 4.98719e-61 5.20315e-61 5.38226e-61 5.52421e-61 5.6293e-61 5.6986e-61 5.73404e-61 5.73856e-61 5.71602e-61 5.67107e-61 5.60874e-61 5.53392e-61 5.45082e-61 5.36255e-61 5.27088e-61 5.17643e-61 5.07917e-61 4.97906e-61 4.87671e-61 4.77377e-61 4.67282e-61 4.57705e-61 4.48954e-61 4.41269e-61 4.34789e-61 4.29559e-61 4.2558e-61 4.22874e-61 4.21541e-61 4.2178e-61 4.23858e-61 4.28034e-61 4.34453e-61 4.43037e-61 4.53415e-61 4.64897e-61 4.76519e-61 4.8714e-61 4.9559e-61 5.00829e-61 5.02106e-61 4.99079e-61 4.91894e-61 4.81176e-61 4.67961e-61 4.53554e-61 4.39342e-61 4.26596e-61 4.16291e-61 4.08989e-61 4.048e-61 4.03425e-61 4.04262e-61 4.06558e-61 4.09544e-61 4.1255e-61 4.15064e-61 4.16745e-61 4.17398e-61 4.16944e-61 4.15387e-61 4.12804e-61 4.09349e-61 4.05268e-61 4.00908e-61 3.9671e-61 3.93177e-61 3.9082e-61 3.90082e-61 3.91264e-61 3.9448e-61 3.99634e-61 4.06461e-61 4.14598e-61 4.23688e-61 4.3347e-61 4.43832e-61 4.54813e-61 4.66534e-61 4.79094e-61 4.92439e-61 5.06249e-61 5.19871e-61 5.32301e-61 5.42246e-61 5.48229e-61 5.48754e-61 5.42485e-61 5.28436e-61 5.06134e-61 4.75726e-61 4.38026e-61 3.94457e-61 3.46925e-61 2.97615e-61 2.48753e-61 2.02372e-61 1.60115e-61 1.23113e-61 9.19397e-62 6.66536e-62 4.68928e-62 3.20063e-62 2.11903e-62 1.36075e-62 8.47525e-63 5.12028e-63 3.00094e-63 1.70658e-63 9.41888e-64 5.04659e-64 2.62577e-64 1.32716e-64 6.51858e-65 3.11253e-65 1.44536e-65 6.53002e-66 2.87152e-66 1.22956e-66 5.12873e-67 2.08486e-67 8.26295e-68 3.19421e-68 1.20488e-68 4.43664e-69 1.5954e-69 5.60484e-70 1.92444e-70 6.46041e-71 2.12126e-71 6.81499e-72 2.14305e-72 6.59851e-73 1.99002e-73 5.88045e-74 1.70314e-74 4.83632e-75 1.34692e-75 3.6801e-76 9.86734e-77 2.5971e-77 6.71194e-78 1.70372e-78 4.24868e-79 1.04118e-79 2.50772e-80 5.92416e-81 1.31205e-81 0 
0 1.68213e-115 1.30264e-114 9.82556e-114 7.33474e-113 5.4198e-112 3.96383e-111 2.86904e-110 2.05498e-109 1.45641e-108 1.02122e-107 7.08385e-107 4.8606e-106 3.29863e-105 2.21387e-104 1.46926e-103 9.64095e-103 6.25415e-102 4.01043e-101 2.54177e-100 1.59202e-99 9.85312e-99 6.02499e-98 3.63947e-97 2.1715e-96 1.27957e-95 7.44541e-95 4.27731e-94 2.42575e-93 1.35784e-92 7.50094e-92 4.0886e-91 2.19866e-90 1.16625e-89 6.10108e-89 3.14721e-88 1.60056e-87 8.02356e-87 3.96398e-86 1.92967e-85 9.25414e-85 4.37125e-84 2.03331e-83 9.31188e-83 4.19774e-82 1.86227e-81 8.12869e-81 3.49019e-80 1.47376e-79 6.11849e-79 2.49688e-78 1.00132e-77 3.94512e-77 1.52664e-76 5.80081e-76 2.16366e-75 7.91976e-75 2.844e-74 1.00163e-73 3.45866e-73 1.17056e-72 3.88168e-72 1.26078e-71 4.00962e-71 1.24811e-70 3.80134e-70 1.13237e-69 3.29792e-69 9.38701e-69 2.61022e-68 7.0878e-68 1.87868e-67 4.85869e-67 1.22554e-66 3.01361e-66 7.22126e-66 1.68545e-65 3.83003e-65 8.47006e-65 1.82213e-64 3.81148e-64 7.74907e-64 1.53064e-63 2.93626e-63 5.46838e-63 9.88374e-63 1.73323e-62 2.94819e-62 4.8634e-62 7.77959e-62 1.20668e-61 1.815e-61 2.64781e-61 3.7477e-61 5.14891e-61 6.87105e-61 8.91367e-61 1.12531e-60 1.38429e-60 1.66174e-60 1.94987e-60 2.24051e-60 2.52593e-60 2.79946e-60 3.05579e-60 3.29104e-60 3.50254e-60 3.68853e-60 3.84791e-60 3.98006e-60 4.08476e-60 4.16225e-60 4.21333e-60 4.23944e-60 4.24274e-60 4.22609e-60 4.19293e-60 4.14695e-60 4.09177e-60 4.03049e-60 3.9654e-60 3.8978e-60 3.82815e-60 3.75641e-60 3.68258e-60 3.60709e-60 3.53116e-60 3.4567e-60 3.38606e-60 3.32152e-60 3.26485e-60 3.21707e-60 3.17852e-60 3.1492e-60 3.12928e-60 3.1195e-60 3.1213e-60 3.13667e-60 3.16752e-60 3.2149e-60 3.27825e-60 3.35482e-60 3.43952e-60 3.52524e-60 3.60357e-60 3.66587e-60 3.70447e-60 3.71383e-60 3.69145e-60 3.63838e-60 3.55925e-60 3.46171e-60 3.35539e-60 3.25053e-60 3.15649e-60 3.08048e-60 3.02664e-60 2.99579e-60 2.9857e-60 2.99195e-60 3.00896e-60 3.03106e-60 3.0533e-60 3.0719e-60 3.08434e-60 3.08919e-60 3.08585e-60 3.07437e-60 3.05529e-60 3.02976e-60 2.99959e-60 2.96735e-60 2.93628e-60 2.91011e-60 2.89261e-60 2.88704e-60 2.89566e-60 2.91929e-60 2.95724e-60 3.00755e-60 3.06754e-60 3.13459e-60 3.20675e-60 3.28321e-60 3.36422e-60 3.45071e-60 3.54338e-60 3.64183e-60 3.74371e-60 3.84419e-60 3.93586e-60 4.00918e-60 4.05324e-60 4.05699e-60 4.01057e-60 3.90669e-60 3.74184e-60 3.51711e-60 3.23847e-60 2.91645e-60 2.56512e-60 2.20062e-60 1.83941e-60 1.49651e-60 1.18407e-60 9.10467e-61 6.7995e-61 4.92957e-61 3.46817e-61 2.3672e-61 1.56726e-61 1.00643e-61 6.2684e-62 3.787e-62 2.2195e-62 1.26217e-62 6.96603e-63 3.73231e-63 1.94191e-63 9.81491e-64 4.82068e-64 2.30176e-64 1.06884e-64 4.82888e-65 2.12343e-65 9.09224e-66 3.79252e-66 1.54167e-66 6.1101e-67 2.36199e-67 8.90963e-68 3.28075e-68 1.17976e-68 4.14471e-69 1.42313e-69 4.77762e-70 1.56877e-70 5.04017e-71 1.585e-71 4.88047e-72 1.47195e-72 4.34982e-73 1.2599e-73 3.5779e-74 9.96514e-75 2.72291e-75 7.30142e-76 1.9219e-76 4.96739e-77 1.26101e-77 3.14496e-78 7.70783e-79 1.85665e-79 4.38655e-80 9.71607e-81 0 
0 1.24264e-114 9.62088e-114 7.25516e-113 5.41473e-112 4.00017e-111 2.92491e-110 2.1166e-109 1.5157e-108 1.07398e-107 7.529e-107 5.22151e-106 3.582e-105 2.4304e-104 1.63082e-103 1.08209e-102 7.09902e-102 4.60426e-101 2.95187e-100 1.8705e-99 1.17135e-98 7.24817e-98 4.43128e-97 2.67628e-96 1.59652e-95 9.40591e-95 5.47203e-94 3.14308e-93 1.7822e-92 9.97442e-92 5.50912e-91 3.00242e-90 1.61431e-89 8.56158e-89 4.47819e-88 2.30971e-87 1.17447e-86 5.88675e-86 2.90791e-85 1.41539e-84 6.78693e-84 3.20545e-83 1.49085e-82 6.82682e-82 3.07715e-81 1.36499e-80 5.95748e-80 2.5577e-79 1.0799e-78 4.48297e-78 1.82929e-77 7.33542e-77 2.88987e-76 1.11822e-75 4.24865e-75 1.58462e-74 5.79998e-74 2.08268e-73 7.33469e-73 2.53261e-72 8.57117e-72 2.84221e-71 9.23139e-71 2.93578e-70 9.13842e-70 2.78325e-69 8.29092e-69 2.41468e-68 6.87309e-68 1.91121e-67 5.18983e-67 1.37565e-66 3.55785e-66 8.97449e-66 2.20693e-65 5.28851e-65 1.2344e-64 2.80521e-64 6.20402e-64 1.33472e-63 2.79209e-63 5.6769e-63 1.1214e-62 2.15133e-62 4.0068e-62 7.24245e-62 1.27012e-61 2.16057e-61 3.56429e-61 5.70177e-61 8.84429e-61 1.33033e-60 1.94081e-60 2.74706e-60 3.77418e-60 5.03651e-60 6.53367e-60 8.24828e-60 1.01462e-59 1.21791e-59 1.42899e-59 1.64186e-59 1.85087e-59 2.0511e-59 2.23868e-59 2.41078e-59 2.56544e-59 2.7014e-59 2.81787e-59 2.91441e-59 2.99088e-59 3.04745e-59 3.08473e-59 3.10377e-59 3.10616e-59 3.09399e-59 3.06976e-59 3.03618e-59 2.99588e-59 2.95113e-59 2.9036e-59 2.85424e-59 2.80338e-59 2.751e-59 2.69708e-59 2.64195e-59 2.58649e-59 2.53211e-59 2.48052e-59 2.43338e-59 2.392e-59 2.35712e-59 2.32899e-59 2.3076e-59 2.29309e-59 2.28597e-59 2.28732e-59 2.29858e-59 2.32114e-59 2.35577e-59 2.40206e-59 2.458e-59 2.51987e-59 2.58247e-59 2.63967e-59 2.68515e-59 2.71331e-59 2.72011e-59 2.70372e-59 2.66491e-59 2.60707e-59 2.53578e-59 2.45809e-59 2.38147e-59 2.31277e-59 2.25725e-59 2.21795e-59 2.19545e-59 2.18813e-59 2.19275e-59 2.20523e-59 2.22142e-59 2.23772e-59 2.25135e-59 2.26046e-59 2.26403e-59 2.2616e-59 2.2532e-59 2.23925e-59 2.22058e-59 2.19849e-59 2.17488e-59 2.15211e-59 2.13292e-59 2.12004e-59 2.11589e-59 2.12211e-59 2.13931e-59 2.16697e-59 2.20369e-59 2.24749e-59 2.29646e-59 2.34917e-59 2.40502e-59 2.46421e-59 2.5274e-59 2.5951e-59 2.66702e-59 2.74144e-59 2.81482e-59 2.88177e-59 2.93529e-59 2.96742e-59 2.97008e-59 2.93604e-59 2.85998e-59 2.73932e-59 2.57485e-59 2.37094e-59 2.13526e-59 1.87811e-59 1.61131e-59 1.34688e-59 1.09584e-59 8.67092e-60 6.66754e-60 4.97957e-60 3.61022e-60 2.53999e-60 1.7337e-60 1.14784e-60 7.37093e-61 4.59087e-61 2.77351e-61 1.62549e-61 9.24354e-62 5.10149e-62 2.73325e-62 1.42206e-62 7.18731e-63 3.53002e-63 1.68546e-63 7.82639e-64 3.53577e-64 1.55477e-64 6.65719e-65 2.77677e-65 1.12875e-65 4.47353e-66 1.72933e-66 6.52315e-67 2.40199e-67 8.63763e-68 3.03458e-68 1.04197e-68 3.49808e-69 1.14865e-69 3.69051e-70 1.1606e-70 3.57382e-71 1.07791e-71 3.18553e-72 9.22719e-73 2.62051e-73 7.29908e-74 1.99456e-74 5.34875e-75 1.40802e-75 3.6395e-76 9.23991e-77 2.30465e-77 5.64889e-78 1.36083e-78 3.21545e-79 7.12281e-80 0 
0 9.08557e-114 7.03277e-113 5.30225e-112 3.95633e-111 2.92212e-110 2.13617e-109 1.54549e-108 1.10649e-107 7.83855e-107 5.49396e-106 3.80936e-105 2.61271e-104 1.77237e-103 1.18903e-102 7.88793e-102 5.17381e-101 3.35495e-100 2.1505e-99 1.36243e-98 8.53024e-98 5.27744e-97 3.22585e-96 1.9479e-95 1.1618e-94 6.84355e-94 3.98065e-93 2.28605e-92 1.29603e-91 7.25229e-91 4.00497e-90 2.18233e-89 1.17319e-88 6.22115e-88 3.25354e-87 1.67783e-86 8.53043e-86 4.27511e-85 2.11152e-84 1.02762e-83 4.92694e-83 2.32671e-82 1.08202e-81 4.95419e-81 2.23283e-80 9.90359e-80 4.32199e-79 1.85537e-78 7.833e-78 3.25142e-77 1.32665e-76 5.31945e-76 2.09552e-75 8.10798e-75 3.08043e-74 1.14885e-73 4.20479e-73 1.50981e-72 5.317e-72 1.83586e-71 6.21301e-71 2.0602e-70 6.69137e-70 2.12799e-69 6.62393e-69 2.01743e-68 6.00971e-68 1.75032e-67 4.98216e-67 1.38543e-66 3.76222e-66 9.9727e-66 2.57935e-65 6.50658e-65 1.60012e-64 3.8346e-64 8.95091e-64 2.03424e-63 4.49921e-63 9.68012e-63 2.02511e-62 4.11775e-62 8.13464e-62 1.56069e-61 2.90693e-61 5.25472e-61 9.21586e-61 1.56778e-60 2.58651e-60 4.13783e-60 6.41866e-60 9.65514e-60 1.40862e-59 1.99383e-59 2.73934e-59 3.65555e-59 4.74214e-59 5.98646e-59 7.36362e-59 8.83856e-59 1.03697e-58 1.19136e-58 1.34289e-58 1.48802e-58 1.62394e-58 1.74859e-58 1.86057e-58 1.95898e-58 2.04325e-58 2.11308e-58 2.16837e-58 2.20927e-58 2.2362e-58 2.24995e-58 2.25166e-58 2.24285e-58 2.22532e-58 2.20103e-58 2.1719e-58 2.13955e-58 2.10519e-58 2.0695e-58 2.03273e-58 1.99486e-58 1.95587e-58 1.916e-58 1.8759e-58 1.83657e-58 1.79927e-58 1.76519e-58 1.73527e-58 1.71006e-58 1.68973e-58 1.67429e-58 1.66381e-58 1.65868e-58 1.65968e-58 1.66785e-58 1.68418e-58 1.70925e-58 1.74274e-58 1.7832e-58 1.82795e-58 1.87322e-58 1.91457e-58 1.94745e-58 1.96779e-58 1.97268e-58 1.96079e-58 1.93269e-58 1.89082e-58 1.83924e-58 1.78303e-58 1.7276e-58 1.67791e-58 1.63777e-58 1.60936e-58 1.59312e-58 1.58786e-58 1.59124e-58 1.6003e-58 1.61205e-58 1.62387e-58 1.63376e-58 1.64037e-58 1.64297e-58 1.64122e-58 1.63514e-58 1.62504e-58 1.61151e-58 1.59551e-58 1.57838e-58 1.56186e-58 1.54792e-58 1.53855e-58 1.53548e-58 1.53992e-58 1.55231e-58 1.57229e-58 1.59881e-58 1.63048e-58 1.66588e-58 1.70401e-58 1.74441e-58 1.78722e-58 1.83293e-58 1.8819e-58 1.93392e-58 1.98774e-58 2.04081e-58 2.08921e-58 2.1279e-58 2.1511e-58 2.15295e-58 2.12825e-58 2.07311e-58 1.98567e-58 1.86649e-58 1.71872e-58 1.54794e-58 1.36158e-58 1.1682e-58 9.76539e-59 7.94561e-59 6.28725e-59 4.83477e-59 3.61089e-59 2.61798e-59 1.84193e-59 1.25724e-59 8.32388e-60 5.34522e-60 3.32915e-60 2.01123e-60 1.17871e-60 6.70274e-61 3.69913e-61 1.98184e-61 1.03109e-61 5.2111e-62 2.55933e-62 1.22195e-62 5.67392e-63 2.56326e-63 1.1271e-63 4.82586e-64 2.01286e-64 8.18208e-65 3.2427e-65 1.25351e-65 4.72828e-66 1.74106e-66 6.26089e-67 2.19959e-67 7.55268e-68 2.5356e-68 8.32616e-69 2.67518e-69 8.4132e-70 2.59074e-70 7.8143e-71 2.30944e-71 6.68981e-72 1.9e-72 5.29248e-73 1.44632e-73 3.87881e-74 1.02114e-74 2.63968e-75 6.70211e-76 1.6718e-76 4.0981e-77 9.87333e-78 2.33316e-78 5.16886e-79 0 
0 6.57415e-113 5.08766e-112 3.83491e-111 2.86082e-110 2.11251e-109 1.54399e-108 1.11681e-107 7.99407e-107 5.66191e-106 3.96753e-105 2.75041e-104 1.88602e-103 1.27915e-102 8.57971e-102 5.69055e-101 3.73178e-100 2.4194e-99 1.55051e-98 9.82131e-98 6.14801e-97 3.80291e-96 2.32411e-95 1.40314e-94 8.36741e-94 4.92794e-93 2.86592e-92 1.6456e-91 9.32783e-91 5.2188e-90 2.88155e-89 1.56993e-88 8.43845e-88 4.47406e-87 2.33951e-86 1.2063e-85 6.13226e-85 3.07283e-84 1.51751e-83 7.38441e-83 3.54004e-82 1.67156e-81 7.77265e-81 3.55844e-80 1.60361e-79 7.11202e-79 3.10345e-78 1.33215e-77 5.6236e-77 2.33413e-76 9.52308e-76 3.8182e-75 1.50403e-74 5.81907e-74 2.2107e-73 8.24448e-73 3.01736e-72 1.0834e-71 3.81524e-71 1.3173e-70 4.458e-70 1.47823e-69 4.80116e-69 1.52686e-68 4.7528e-68 1.44756e-67 4.31221e-67 1.25595e-66 3.57509e-66 9.94191e-66 2.69988e-65 7.15703e-65 1.85119e-64 4.67e-64 1.14853e-63 2.75256e-63 6.42556e-63 1.46041e-62 3.23028e-62 6.9505e-62 1.45418e-61 2.95706e-61 5.84213e-61 1.12094e-60 2.088e-60 3.77467e-60 6.62055e-60 1.12634e-59 1.85835e-59 2.9731e-59 4.61214e-59 6.938e-59 1.01224e-58 1.4328e-58 1.96857e-58 2.62699e-58 3.4078e-58 4.30188e-58 5.2913e-58 6.35081e-58 7.4505e-58 8.55904e-58 9.6468e-58 1.06883e-57 1.16633e-57 1.25572e-57 1.33599e-57 1.4065e-57 1.46687e-57 1.51687e-57 1.55645e-57 1.58572e-57 1.60499e-57 1.61481e-57 1.61602e-57 1.60971e-57 1.59715e-57 1.57976e-57 1.55891e-57 1.53575e-57 1.51116e-57 1.48562e-57 1.4593e-57 1.43219e-57 1.40428e-57 1.37574e-57 1.34703e-57 1.31887e-57 1.29217e-57 1.26777e-57 1.24636e-57 1.22832e-57 1.21378e-57 1.20274e-57 1.19525e-57 1.1916e-57 1.19233e-57 1.19819e-57 1.2099e-57 1.22786e-57 1.25185e-57 1.28082e-57 1.31286e-57 1.34527e-57 1.37487e-57 1.3984e-57 1.41295e-57 1.41643e-57 1.40789e-57 1.38775e-57 1.35775e-57 1.32079e-57 1.28053e-57 1.24083e-57 1.20525e-57 1.17651e-57 1.15619e-57 1.14458e-57 1.14084e-57 1.14329e-57 1.14981e-57 1.15825e-57 1.16674e-57 1.17384e-57 1.17859e-57 1.18046e-57 1.17921e-57 1.17486e-57 1.16761e-57 1.15791e-57 1.14642e-57 1.13413e-57 1.12226e-57 1.11224e-57 1.10548e-57 1.10324e-57 1.10638e-57 1.11522e-57 1.12949e-57 1.14847e-57 1.17113e-57 1.19648e-57 1.22378e-57 1.25271e-57 1.28337e-57 1.3161e-57 1.35116e-57 1.38841e-57 1.42695e-57 1.46495e-57 1.4996e-57 1.52728e-57 1.54386e-57 1.54515e-57 1.52739e-57 1.48782e-57 1.42508e-57 1.33958e-57 1.23357e-57 1.11103e-57 9.77317e-58 8.38555e-58 7.01008e-58 5.704e-58 4.51367e-58 3.47104e-58 2.59245e-58 1.87963e-58 1.32246e-58 9.02673e-59 5.9764e-59 3.83774e-59 2.39022e-59 1.44397e-59 8.46239e-60 4.812e-60 2.65557e-60 1.4227e-60 7.40156e-61 3.74059e-61 1.83704e-61 8.7706e-62 4.07232e-62 1.83965e-62 8.08888e-63 3.46327e-63 1.44448e-63 5.87149e-64 2.32692e-64 8.99478e-65 3.39281e-65 1.24929e-65 4.49243e-66 1.57828e-66 5.4193e-67 1.81938e-67 5.97437e-68 1.91958e-68 6.03703e-69 1.85907e-69 5.60757e-70 1.65732e-70 4.80098e-71 1.36361e-71 3.79854e-72 1.03811e-72 2.78423e-73 7.33029e-74 1.89503e-74 4.81182e-75 1.20038e-75 2.94274e-76 7.09041e-77 1.67569e-77 3.71262e-78 0 
0 4.70721e-112 3.64207e-111 2.74466e-110 2.04705e-109 1.51127e-108 1.10431e-107 7.98611e-107 5.71518e-106 4.047e-105 2.83531e-104 1.96511e-103 1.34725e-102 9.13552e-102 6.12631e-101 4.06252e-100 2.66362e-99 1.72655e-98 1.10628e-97 7.00612e-97 4.38492e-96 2.71184e-95 1.65702e-94 1.00022e-93 5.96362e-93 3.51164e-92 2.0419e-91 1.17226e-90 6.64372e-90 3.71649e-89 2.05174e-88 1.11766e-87 6.0066e-87 3.18424e-86 1.66482e-85 8.58302e-85 4.36262e-84 2.1858e-83 1.07932e-82 5.25148e-82 2.51724e-81 1.18847e-80 5.52575e-80 2.52951e-79 1.13981e-78 5.05462e-78 2.20547e-77 9.46617e-77 3.99579e-76 1.65838e-75 6.7656e-75 2.71245e-74 1.0684e-73 4.13343e-73 1.57025e-72 5.85576e-72 2.14305e-71 7.69457e-71 2.70961e-70 9.35542e-70 3.16602e-69 1.04982e-68 3.40973e-68 1.08437e-67 3.37546e-67 1.02809e-66 3.06269e-66 8.92052e-66 2.53934e-65 7.0619e-65 1.91786e-64 5.08427e-64 1.31514e-63 3.31791e-63 8.16053e-63 1.95589e-62 4.56616e-62 1.03788e-61 2.29587e-61 4.94036e-61 1.0337e-60 2.10221e-60 4.15358e-60 7.97018e-60 1.48475e-59 2.68433e-59 4.70852e-59 8.0111e-59 1.32183e-58 2.11488e-58 3.28097e-58 4.93575e-58 7.20141e-58 1.01937e-57 1.40056e-57 1.869e-57 2.42449e-57 3.06051e-57 3.76426e-57 4.51775e-57 5.29966e-57 6.08766e-57 6.86068e-57 7.60056e-57 8.29298e-57 8.92753e-57 9.49716e-57 9.99735e-57 1.04254e-56 1.07798e-56 1.10603e-56 1.12676e-56 1.14041e-56 1.14736e-56 1.14821e-56 1.14373e-56 1.13482e-56 1.1225e-56 1.10772e-56 1.09131e-56 1.07389e-56 1.05579e-56 1.03714e-56 1.01793e-56 9.98156e-57 9.77931e-57 9.57584e-57 9.37632e-57 9.18706e-57 9.0142e-57 8.86251e-57 8.73471e-57 8.63173e-57 8.55355e-57 8.5006e-57 8.47483e-57 8.48014e-57 8.5218e-57 8.6049e-57 8.73227e-57 8.90235e-57 9.10777e-57 9.33487e-57 9.56456e-57 9.77432e-57 9.94097e-57 1.0044e-56 1.00685e-56 1.00078e-56 9.86489e-57 9.65209e-57 9.39e-57 9.10447e-57 8.82302e-57 8.57081e-57 8.36716e-57 8.2232e-57 8.14106e-57 8.11474e-57 8.13232e-57 8.17876e-57 8.23882e-57 8.29916e-57 8.34963e-57 8.38343e-57 8.39672e-57 8.3879e-57 8.35704e-57 8.30563e-57 8.23671e-57 8.15513e-57 8.06776e-57 7.98337e-57 7.91198e-57 7.86377e-57 7.84759e-57 7.86956e-57 7.93195e-57 8.03295e-57 8.16732e-57 8.32788e-57 8.50753e-57 8.70102e-57 8.9061e-57 9.12347e-57 9.35549e-57 9.60407e-57 9.86811e-57 1.01413e-56 1.04106e-56 1.06561e-56 1.08522e-56 1.09695e-56 1.09783e-56 1.0852e-56 1.05708e-56 1.01252e-56 9.51796e-57 8.76504e-57 7.89472e-57 6.94489e-57 5.95911e-57 4.98188e-57 4.05386e-57 3.20802e-57 2.46707e-57 1.84265e-57 1.33602e-57 9.40005e-58 6.41622e-58 4.24802e-58 2.72783e-58 1.69892e-58 1.02632e-58 6.01455e-59 3.41996e-59 1.88728e-59 1.01105e-59 5.25974e-60 2.65803e-60 1.30533e-60 6.23173e-61 2.89335e-61 1.30699e-61 5.74655e-62 2.46029e-62 1.02611e-62 4.17076e-63 1.65285e-63 6.38895e-64 2.40983e-64 8.87321e-65 3.19073e-65 1.12095e-65 3.84895e-66 1.29218e-66 4.24317e-67 1.36335e-67 4.28774e-68 1.32041e-68 3.98288e-69 1.17717e-69 3.41019e-70 9.6862e-71 2.69836e-71 7.3748e-72 1.97803e-72 5.20804e-73 1.34647e-73 3.41917e-74 8.53023e-75 2.09136e-75 5.03947e-76 1.19109e-76 2.63917e-77 0 
0 3.33489e-111 2.57972e-110 1.94365e-109 1.44931e-108 1.06975e-107 7.81515e-107 5.65052e-106 4.04289e-105 2.86223e-104 2.00485e-103 1.38925e-102 9.5225e-102 6.45581e-101 4.32843e-100 2.86973e-99 1.8812e-98 1.21916e-97 7.81023e-97 4.94533e-96 3.09457e-95 1.91349e-94 1.16899e-93 7.05512e-93 4.20576e-92 2.47612e-91 1.43955e-90 8.26313e-90 4.68235e-89 2.6189e-88 1.44558e-87 7.87348e-87 4.2308e-86 2.24253e-85 1.17231e-84 6.04306e-84 3.0712e-83 1.53857e-82 7.59635e-82 3.69562e-81 1.77126e-80 8.36184e-80 3.8874e-79 1.77936e-78 8.01716e-78 3.55498e-77 1.55101e-76 6.65663e-76 2.80965e-75 1.16601e-74 4.75664e-74 1.90692e-73 7.51077e-73 2.90563e-72 1.10378e-71 4.11608e-71 1.50633e-70 5.40835e-70 1.9045e-69 6.57558e-69 2.22528e-68 7.37882e-68 2.39661e-67 7.62186e-67 2.37261e-66 7.22662e-66 2.1529e-65 6.27089e-65 1.78517e-64 4.96481e-64 1.34841e-63 3.57488e-63 9.24772e-63 2.33323e-62 5.73911e-62 1.37564e-61 3.21179e-61 7.30102e-61 1.61518e-60 3.47593e-60 7.27357e-60 1.47934e-59 2.92317e-59 5.6097e-59 1.04512e-58 1.88966e-58 3.31489e-58 5.64041e-58 9.30737e-58 1.48924e-57 2.3105e-57 3.47599e-57 5.07177e-57 7.17937e-57 9.86423e-57 1.31635e-56 1.70757e-56 2.15546e-56 2.65098e-56 3.18144e-56 3.73179e-56 4.2863e-56 4.8301e-56 5.35041e-56 5.83716e-56 6.28306e-56 6.68317e-56 7.03438e-56 7.33482e-56 7.58351e-56 7.78025e-56 7.92563e-56 8.02127e-56 8.06997e-56 8.07585e-56 8.04433e-56 7.98185e-56 7.89539e-56 7.7917e-56 7.67663e-56 7.55442e-56 7.4275e-56 7.29672e-56 7.16199e-56 7.02326e-56 6.88139e-56 6.73865e-56 6.59869e-56 6.46594e-56 6.34469e-56 6.23831e-56 6.1487e-56 6.07652e-56 6.02174e-56 5.98468e-56 5.96668e-56 5.97048e-56 5.99978e-56 6.05816e-56 6.14757e-56 6.26694e-56 6.41109e-56 6.57043e-56 6.73157e-56 6.8787e-56 6.99556e-56 7.06775e-56 7.08485e-56 7.04218e-56 6.94177e-56 6.79235e-56 6.60836e-56 6.40795e-56 6.21043e-56 6.03346e-56 5.89061e-56 5.78967e-56 5.73216e-56 5.71383e-56 5.72632e-56 5.75907e-56 5.80135e-56 5.84382e-56 5.87934e-56 5.90313e-56 5.9125e-56 5.90633e-56 5.88466e-56 5.84853e-56 5.80009e-56 5.74272e-56 5.68125e-56 5.62184e-56 5.57153e-56 5.53748e-56 5.52591e-56 5.54112e-56 5.58473e-56 5.65547e-56 5.74966e-56 5.86227e-56 5.98829e-56 6.12405e-56 6.26796e-56 6.42049e-56 6.5833e-56 6.75772e-56 6.94298e-56 7.13463e-56 7.32355e-56 7.49578e-56 7.63328e-56 7.71548e-56 7.72144e-56 7.63248e-56 7.43473e-56 7.12142e-56 6.6945e-56 6.16516e-56 5.55323e-56 4.88534e-56 4.19211e-56 3.50482e-56 2.85207e-56 2.25707e-56 1.73582e-56 1.29652e-56 9.4006e-57 6.61419e-57 4.51467e-57 2.98903e-57 1.91935e-57 1.19536e-57 7.22096e-58 4.23157e-58 2.40603e-58 1.32769e-58 7.11232e-59 3.69982e-59 1.86962e-59 9.18097e-60 4.38282e-60 2.0348e-60 9.19116e-61 4.04093e-61 1.72997e-61 7.2148e-62 2.93241e-62 1.16205e-62 4.49163e-63 1.69412e-63 6.23773e-64 2.24298e-64 7.87974e-65 2.70558e-65 9.0831e-66 2.98263e-66 9.58331e-67 3.01397e-67 9.2816e-68 2.79974e-68 8.27501e-69 2.39728e-69 6.80937e-70 1.89701e-70 5.18486e-71 1.39072e-71 3.66188e-72 9.46787e-73 2.40438e-73 5.99892e-74 1.47087e-74 3.54456e-75 8.37832e-76 1.85659e-76 0 