# vtk DataFile Version 3.0
Gray-Scott Simulation Output
ASCII
DATASET STRUCTURED_POINTS
DIMENSIONS 256 256 1
SPACING 1.0 1.0 1.0
ORIGIN 0 0 0
POINT_DATA 65536
SCALARS u double
LOOKUP_TABLE default
0 0 0 0 0 0 0 0 0 0 0 0 0 0 0 0 0 0 0 0 0 0 0 0 0 0 0 0 0 0 0 0 0 0 0 0 0 0 0 0 0 0 0 0 0 0 0 0 0 0 0 0 0 0 0 0 0 0 0 0 0 0 0 0 0 0 0 0 0 0 0 0 0 0 0 0 0 0 0 0 0 0 0 0 0 0 0 0 0 0 0 0 0 0 0 0 0 0 0 0 0 0 0 0 0 0 0 0 0 0 0 0 0 0 0 0 0 0 0 0 0 0 0 0 0 0 0 0 0 0 0 0 0 0 0 0 0 0 0 0 0 0 0 0 0 0 0 0 0 0 0 0 0 0 0 0 0 0 0 0 0 0 0 0 0 0 0 0 0 0 0 0 0 0 0 0 0 0 0 0 0 0 0 0 0 0 0 0 0 0 0 0 0 0 0 0 0 0 0 0 0 0 0 0 0 0 0 0 0 0 0 0 0 0 0 0 0 0 0 0 0 0 0 0 0 0 0 0 0 0 0 0 0 0 0 0 0 0 0 0 0 0 0 0 0 0 0 0 0 0 0 0 0 0 0 0 
0 3.92539e-80 1.49609e-79 5.27466e-79 1.8344e-78 6.32282e-78 2.16063e-77 7.31961e-77 2.45815e-76 8.183e-76 2.70006e-75 8.83009e-75 2.86191e-74 9.19219e-74 2.92566e-73 9.22662e-73 2.88299e-72 8.92476e-72 2.73697e-71 8.31449e-71 2.50184e-70 7.45605e-70 2.20066e-69 6.43218e-69 1.86162e-68 5.33481e-68 1.51358e-67 4.25126e-67 1.18201e-66 3.25295e-66 8.86038e-66 2.38841e-65 6.37106e-65 1.6816e-64 4.39138e-64 1.13452e-63 2.89945e-63 7.32946e-63 1.83249e-62 4.5309e-62 1.1078e-61 2.6781e-61 6.40091e-61 1.51239e-60 3.53227e-60 8.15386e-60 1.86017e-59 4.19349e-59 9.34091e-59 2.05565e-58 4.469e-58 9.59682e-58 2.03542e-57 4.26331e-57 8.81775e-57 1.8007e-56 3.63037e-56 7.22506e-56 1.41927e-55 2.75154e-55 5.26414e-55 9.93744e-55 1.85085e-54 3.40073e-54 6.16356e-54 1.10181e-53 1.94246e-53 3.37698e-53 5.78884e-53 9.78368e-53 1.63013e-52 2.67739e-52 4.33449e-52 6.91618e-52 1.0876e-51 1.68544e-51 2.57381e-51 3.87292e-51 5.74222e-51 8.38858e-51 1.20741e-50 1.71228e-50 2.3925e-50 3.29379e-50 4.46809e-50 5.97248e-50 7.86729e-50 1.02135e-49 1.30695e-49 1.64869e-49 2.05064e-49 2.51535e-49 3.04345e-49 3.63337e-49 4.28113e-49 4.98035e-49 5.72235e-49 6.4965e-49 7.2907e-49 8.09191e-49 8.88681e-49 9.66247e-49 1.04069e-48 1.11095e-48 1.17616e-48 1.23564e-48 1.28893e-48 1.33576e-48 1.37605e-48 1.40988e-48 1.43746e-48 1.45908e-48 1.47515e-48 1.48608e-48 1.49236e-48 1.49446e-48 1.49287e-48 1.48806e-48 1.48051e-48 1.47066e-48 1.45895e-48 1.44578e-48 1.43155e-48 1.41664e-48 1.40139e-48 1.38616e-48 1.37128e-48 1.35705e-48 1.34378e-48 1.33175e-48 1.32121e-48 1.31238e-48 1.30544e-48 1.30053e-48 1.29772e-48 1.29699e-48 1.29827e-48 1.30139e-48 1.30607e-48 1.31197e-48 1.31867e-48 1.32568e-48 1.33248e-48 1.33856e-48 1.34344e-48 1.3467e-48 1.34803e-48 1.34727e-48 1.34437e-48 1.33944e-48 1.33274e-48 1.32462e-48 1.31552e-48 1.30591e-48 1.29625e-48 1.28698e-48 1.27842e-48 1.27083e-48 1.26432e-48 1.25891e-48 1.25452e-48 1.25098e-48 1.24807e-48 1.24559e-48 1.24331e-48 1.24105e-48 1.23872e-48 1.23628e-48 1.23376e-48 1.23131e-48 1.2291e-48 1.22738e-48 1.22644e-48 1.22656e-48 1.22802e-48 1.23107e-48 1.23591e-48 1.24269e-48 1.25146e-48 1.26221e-48 1.27484e-48 1.28913e-48 1.3048e-48 1.32143e-48 1.33852e-48 1.35541e-48 1.37137e-48 1.38552e-48 1.39688e-48 1.40441e-48 1.40699e-48 1.40352e-48 1.39296e-48 1.37439e-48 1.34709e-48 1.31058e-48 1.26474e-48 1.20977e-48 1.14626e-48 1.07519e-48 9.97819e-49 9.15722e-49 8.30639e-49 7.44405e-49 6.58848e-49 5.75689e-49 4.96457e-49 4.22419e-49 3.54543e-49 2.93469e-49 2.39521e-49 1.92726e-49 1.5286e-49 1.19496e-49 9.2062e-50 6.98936e-50 5.22877e-50 3.85434e-50 2.79946e-50 2.00339e-50 1.41262e-50 9.81421e-51 6.71837e-51 4.53173e-51 3.01212e-51 1.97291e-51 1.27348e-51 8.10132e-52 5.07951e-52 3.13923e-52 1.91246e-52 1.14858e-52 6.80099e-53 3.97062e-53 2.28591e-53 1.29782e-53 7.26721e-54 4.01383e-54 2.18691e-54 1.17551e-54 6.23438e-55 3.26266e-55 1.68503e-55 8.58905e-56 4.32146e-56 2.14638e-56 1.0525e-56 5.09587e-57 2.43635e-57 1.15032e-57 5.36346e-58 2.46807e-58 1.11686e-58 4.87296e-59 1.81847e-59 0 
0 1.49424e-79 5.6958e-79 2.00845e-78 6.9861e-78 2.40839e-77 8.23141e-77 2.78908e-76 9.36835e-76 3.11926e-75 1.02944e-74 3.36728e-74 1.0916e-73 3.50686e-73 1.1164e-72 3.52156e-72 1.10062e-71 3.40793e-71 1.04537e-70 3.17646e-70 9.56041e-70 2.84996e-69 8.41391e-69 2.45992e-68 7.12153e-68 2.04138e-67 5.79342e-67 1.6277e-66 4.52697e-66 1.24623e-65 3.39553e-65 9.15594e-65 2.44313e-64 6.45058e-64 1.68509e-63 4.35494e-63 1.11336e-62 2.81543e-62 7.04159e-62 1.74169e-61 4.25996e-61 1.03023e-60 2.46328e-60 5.82242e-60 1.36038e-59 3.14153e-59 7.1697e-59 1.61696e-58 3.60319e-58 7.93275e-58 1.72529e-57 3.70645e-57 7.86441e-57 1.64793e-56 3.40981e-56 6.9662e-56 1.40504e-55 2.79743e-55 5.49747e-55 1.06624e-54 2.04073e-54 3.85399e-54 7.18097e-54 1.31995e-53 2.39326e-53 4.2799e-53 7.54824e-53 1.31275e-52 2.25115e-52 3.806e-52 6.3436e-52 1.04224e-51 1.68784e-51 2.69395e-51 4.23754e-51 6.56861e-51 1.00333e-50 1.51009e-50 2.2394e-50 3.27203e-50 4.71032e-50 6.68076e-50 9.33569e-50 1.28535e-49 1.74367e-49 2.33077e-49 3.07015e-49 3.98552e-49 5.09951e-49 6.43209e-49 7.99892e-49 9.80965e-49 1.18664e-48 1.41627e-48 1.66826e-48 1.94008e-48 2.22831e-48 2.52878e-48 2.83675e-48 3.14712e-48 3.45472e-48 3.75451e-48 4.04187e-48 4.31274e-48 4.56378e-48 4.79244e-48 4.99697e-48 5.17643e-48 5.33055e-48 5.4597e-48 5.56473e-48 5.64688e-48 5.70767e-48 5.7488e-48 5.7721e-48 5.77942e-48 5.77264e-48 5.7536e-48 5.72409e-48 5.68582e-48 5.64044e-48 5.58953e-48 5.53458e-48 5.47703e-48 5.41824e-48 5.35953e-48 5.30217e-48 5.24736e-48 5.19625e-48 5.14992e-48 5.10933e-48 5.07534e-48 5.04865e-48 5.02977e-48 5.01896e-48 5.01621e-48 5.02119e-48 5.03325e-48 5.05136e-48 5.07418e-48 5.10007e-48 5.12716e-48 5.15346e-48 5.17697e-48 5.19584e-48 5.20847e-48 5.21368e-48 5.21078e-48 5.19964e-48 5.18069e-48 5.15488e-48 5.1236e-48 5.08854e-48 5.05152e-48 5.01435e-48 4.97865e-48 4.94574e-48 4.91655e-48 4.89154e-48 4.87077e-48 4.85391e-48 4.84033e-48 4.82921e-48 4.81967e-48 4.8109e-48 4.80223e-48 4.79324e-48 4.78379e-48 4.77407e-48 4.76455e-48 4.75598e-48 4.74931e-48 4.74562e-48 4.74603e-48 4.75162e-48 4.76336e-48 4.78203e-48 4.80818e-48 4.84205e-48 4.88359e-48 4.93239e-48 4.98769e-48 5.04836e-48 5.11282e-48 5.17912e-48 5.2448e-48 5.30697e-48 5.36229e-48 5.407e-48 5.437e-48 5.44802e-48 5.43578e-48 5.39618e-48 5.32565e-48 5.22132e-48 5.08136e-48 4.90515e-48 4.69346e-48 4.44854e-48 4.17405e-48 3.87495e-48 3.55725e-48 3.22771e-48 2.89347e-48 2.56162e-48 2.23887e-48 1.93119e-48 1.64354e-48 1.37971e-48 1.14223e-48 9.32386e-49 7.50314e-49 5.95163e-49 4.6529e-49 3.5848e-49 2.72162e-49 2.03603e-49 1.50078e-49 1.08997e-49 7.79951e-50 5.49893e-50 3.81989e-50 2.61452e-50 1.76326e-50 1.17177e-50 7.67334e-51 4.95189e-51 3.14939e-51 1.97415e-51 1.21972e-51 7.42858e-52 4.46012e-52 2.64011e-52 1.54088e-52 8.86799e-53 5.03309e-53 2.81733e-53 1.55552e-53 8.47213e-54 4.55232e-54 2.41345e-54 1.26257e-54 6.51824e-55 3.32128e-55 1.67042e-55 8.29355e-56 4.06528e-56 1.96754e-56 9.40333e-57 4.43812e-57 2.06853e-57 9.51511e-58 4.30427e-58 1.87738e-58 7.00417e-59 0 
0 5.26059e-79 2.00558e-78 7.07341e-78 2.46087e-77 8.48533e-77 2.90073e-76 9.83077e-76 3.30282e-75 1.09995e-74 3.63096e-74 1.18797e-73 3.85206e-73 1.23782e-72 3.94158e-72 1.24366e-71 3.88793e-71 1.20419e-70 3.69485e-70 1.12304e-69 3.38109e-69 1.00821e-68 2.97744e-68 8.7077e-68 2.52172e-67 7.23086e-67 2.05281e-66 5.76949e-66 1.60517e-65 4.42045e-65 1.20486e-64 3.25006e-64 8.67558e-64 2.29149e-63 5.98844e-63 1.54827e-62 3.95982e-62 1.00176e-61 2.50651e-61 6.20232e-61 1.51766e-60 3.67192e-60 8.78346e-60 2.07706e-59 4.85515e-59 1.12171e-58 2.5612e-58 5.77888e-58 1.28836e-57 2.83779e-57 6.17486e-57 1.32719e-56 2.81741e-56 5.90656e-56 1.22275e-55 2.49929e-55 5.04336e-55 1.00462e-54 1.97524e-54 3.83285e-54 7.33944e-54 1.38674e-53 2.58509e-53 4.75394e-53 8.62356e-53 1.54287e-52 2.72229e-52 4.73656e-52 8.12585e-52 1.3744e-51 2.29168e-51 3.76664e-51 6.10207e-51 9.7429e-51 1.53305e-50 2.37712e-50 3.632e-50 5.46788e-50 8.11057e-50 1.1853e-49 1.70663e-49 2.42091e-49 3.38338e-49 4.65866e-49 6.32011e-49 8.44821e-49 1.11279e-48 1.44447e-48 1.84801e-48 2.33058e-48 2.89775e-48 3.55289e-48 4.29664e-48 5.12647e-48 6.03645e-48 7.01725e-48 8.05633e-48 9.13845e-48 1.02463e-47 1.13616e-47 1.24654e-47 1.35397e-47 1.4568e-47 1.55357e-47 1.64311e-47 1.72451e-47 1.7972e-47 1.86084e-47 1.91539e-47 1.96099e-47 1.99797e-47 2.02679e-47 2.04803e-47 2.06228e-47 2.07022e-47 2.07251e-47 2.06981e-47 2.06279e-47 2.05207e-47 2.03826e-47 2.02196e-47 2.0037e-47 1.98403e-47 1.96344e-47 1.94243e-47 1.92146e-47 1.90097e-47 1.88141e-47 1.86316e-47 1.84663e-47 1.83214e-47 1.82002e-47 1.8105e-47 1.80377e-47 1.79993e-47 1.79897e-47 1.80077e-47 1.8051e-47 1.81159e-47 1.81977e-47 1.82905e-47 1.83876e-47 1.84819e-47 1.85662e-47 1.86339e-47 1.86793e-47 1.86982e-47 1.8688e-47 1.86484e-47 1.85808e-47 1.84887e-47 1.83771e-47 1.82519e-47 1.81198e-47 1.79872e-47 1.78599e-47 1.77426e-47 1.76385e-47 1.75495e-47 1.74757e-47 1.74158e-47 1.73675e-47 1.73281e-47 1.72942e-47 1.7263e-47 1.72321e-47 1.71999e-47 1.71661e-47 1.71312e-47 1.7097e-47 1.70661e-47 1.70421e-47 1.70286e-47 1.70299e-47 1.70497e-47 1.70916e-47 1.71583e-47 1.72518e-47 1.73731e-47 1.75219e-47 1.76969e-47 1.78953e-47 1.81132e-47 1.8345e-47 1.85837e-47 1.88207e-47 1.90457e-47 1.92467e-47 1.94102e-47 1.95217e-47 1.95657e-47 1.95267e-47 1.93901e-47 1.91427e-47 1.87741e-47 1.82773e-47 1.76501e-47 1.68948e-47 1.60194e-47 1.50367e-47 1.39645e-47 1.28244e-47 1.16405e-47 1.04387e-47 9.24448e-48 8.08217e-48 6.9734e-48 5.93622e-48 4.98443e-48 4.12731e-48 3.36962e-48 2.71199e-48 2.15143e-48 1.68208e-48 1.29601e-48 9.83954e-49 7.36078e-49 5.42546e-49 3.94004e-49 2.81909e-49 1.9873e-49 1.38029e-49 9.44566e-50 6.36895e-50 4.23149e-50 2.77031e-50 1.78731e-50 1.1364e-50 7.12115e-51 4.39838e-51 2.67787e-51 1.60723e-51 9.51032e-52 5.54853e-52 3.19204e-52 1.81095e-52 1.01329e-52 5.59232e-53 3.04458e-53 1.63524e-53 8.66567e-54 4.53139e-54 2.33839e-54 1.19097e-54 5.9873e-55 2.97134e-55 1.45583e-55 7.04292e-56 3.36449e-56 1.58725e-56 7.39469e-57 3.40004e-57 1.5374e-57 6.70306e-58 2.50007e-58 0 
0 1.82681e-78 6.96583e-78 2.45724e-77 8.5506e-77 2.94897e-76 1.00833e-75 3.41808e-75 1.14863e-74 3.82622e-74 1.26335e-73 4.13444e-73 1.34096e-72 4.31017e-72 1.37285e-71 4.33285e-71 1.35492e-70 4.19774e-70 1.28839e-69 3.9172e-69 1.1797e-68 3.51887e-68 1.03953e-67 3.04117e-67 8.81011e-67 2.52711e-66 7.17688e-66 2.01781e-65 5.61597e-65 1.54715e-64 4.21858e-64 1.13839e-63 3.03997e-63 8.03276e-63 2.10009e-62 5.43189e-62 1.38984e-61 3.51754e-61 8.80514e-61 2.17978e-60 5.33619e-60 1.29166e-59 3.09116e-59 7.31322e-59 1.71028e-58 3.95326e-58 9.03084e-58 2.03864e-57 4.54726e-57 1.0021e-56 2.1816e-56 4.69137e-56 9.96411e-56 2.08999e-55 4.32884e-55 8.85261e-55 1.7873e-54 3.56209e-54 7.0072e-54 1.3604e-53 2.60633e-53 4.927e-53 9.18921e-53 1.69072e-52 3.06843e-52 5.49246e-52 9.69567e-52 1.68774e-51 2.89672e-51 4.90163e-51 8.17645e-51 1.34444e-50 2.17888e-50 3.48021e-50 5.47804e-50 8.49693e-50 1.29864e-49 1.95562e-49 2.90152e-49 4.2413e-49 6.10791e-49 8.66567e-49 1.21123e-48 1.66793e-48 2.26289e-48 3.02488e-48 3.98422e-48 5.17141e-48 6.61541e-48 8.34157e-48 1.03695e-47 1.27108e-47 1.53671e-47 1.8329e-47 2.15744e-47 2.50693e-47 2.87684e-47 3.26167e-47 3.6552e-47 4.05082e-47 4.44186e-47 4.82189e-47 5.18504e-47 5.52622e-47 5.84132e-47 6.12727e-47 6.38206e-47 6.60468e-47 6.79502e-47 6.95372e-47 7.08205e-47 7.1817e-47 7.25472e-47 7.30332e-47 7.32984e-47 7.33665e-47 7.3261e-47 7.30049e-47 7.26203e-47 7.21285e-47 7.15498e-47 7.09036e-47 7.02082e-47 6.94814e-47 6.87401e-47 6.80006e-47 6.72785e-47 6.6589e-47 6.59462e-47 6.53637e-47 6.48536e-47 6.44267e-47 6.40918e-47 6.38552e-47 6.37203e-47 6.3687e-47 6.37513e-47 6.39048e-47 6.41348e-47 6.44243e-47 6.47526e-47 6.50961e-47 6.54297e-47 6.57282e-47 6.59681e-47 6.61292e-47 6.61966e-47 6.61616e-47 6.60224e-47 6.57846e-47 6.54603e-47 6.50671e-47 6.46262e-47 6.41608e-47 6.36937e-47 6.32455e-47 6.28328e-47 6.24671e-47 6.21543e-47 6.18951e-47 6.16851e-47 6.15161e-47 6.13779e-47 6.12592e-47 6.11496e-47 6.10408e-47 6.09273e-47 6.08076e-47 6.0684e-47 6.05626e-47 6.0453e-47 6.03672e-47 6.03191e-47 6.03228e-47 6.03922e-47 6.05396e-47 6.07749e-47 6.11052e-47 6.15337e-47 6.206e-47 6.26793e-47 6.33823e-47 6.4155e-47 6.49781e-47 6.58271e-47 6.66718e-47 6.74759e-47 6.81974e-47 6.87888e-47 6.91982e-47 6.93711e-47 6.92523e-47 6.8789e-47 6.79342e-47 6.66502e-47 6.49115e-47 6.27087e-47 6.00498e-47 5.69617e-47 5.34895e-47 4.96957e-47 4.56564e-47 4.14576e-47 3.71908e-47 3.29475e-47 2.88142e-47 2.48687e-47 2.11755e-47 1.77846e-47 1.47294e-47 1.20275e-47 9.68155e-48 7.68125e-48 6.00601e-48 4.62772e-48 3.5135e-48 2.62834e-48 1.93719e-48 1.4067e-48 1.00638e-48 7.09347e-49 4.92597e-49 3.37033e-49 2.27203e-49 1.50916e-49 9.87772e-50 6.37094e-50 4.04951e-50 2.53678e-50 1.56631e-50 9.53282e-51 5.71939e-51 3.38298e-51 1.97293e-51 1.13455e-51 6.43399e-52 3.59851e-52 1.98515e-52 1.08028e-52 5.79961e-53 3.07201e-53 1.60566e-53 8.28209e-54 4.21623e-54 2.11862e-54 1.05093e-54 5.14673e-55 2.48869e-55 1.18833e-55 5.60355e-56 2.60938e-56 1.19924e-56 5.42023e-57 2.36226e-57 8.80794e-58 0 
0 6.28726e-78 2.39782e-77 8.46018e-77 2.94457e-76 1.01576e-75 3.47393e-75 1.17788e-74 3.95915e-74 1.31916e-73 4.35674e-73 1.42615e-72 4.62678e-72 1.48756e-71 4.73942e-71 1.49623e-70 4.6802e-70 1.45042e-69 4.45306e-69 1.35433e-68 4.07998e-68 1.21739e-67 3.59757e-67 1.05284e-66 3.05107e-66 8.75486e-66 2.48724e-65 6.99559e-65 1.94775e-64 5.36793e-64 1.46424e-63 3.95286e-63 1.05601e-62 2.79153e-62 7.30128e-62 1.88929e-61 4.83618e-61 1.22453e-60 3.06664e-60 7.5952e-60 1.8602e-59 4.50485e-59 1.0786e-58 2.55305e-58 5.97354e-58 1.38145e-57 3.15737e-57 7.13112e-57 1.59143e-56 3.50891e-56 7.64299e-56 1.64443e-55 3.49448e-55 7.33361e-55 1.51976e-54 3.10961e-54 6.28151e-54 1.25257e-53 2.46531e-53 4.78878e-53 9.17942e-53 1.73618e-52 3.23978e-52 5.96392e-52 1.08292e-51 1.93938e-51 3.4252e-51 5.96516e-51 1.0243e-50 1.73403e-50 2.89382e-50 4.76027e-50 7.7179e-50 1.23322e-49 1.94185e-49 3.01302e-49 4.60646e-49 6.93886e-49 1.02978e-48 1.50563e-48 2.1687e-48 3.07738e-48 4.30193e-48 5.92451e-48 8.03827e-48 1.07452e-47 1.41526e-47 1.83684e-47 2.34946e-47 2.96203e-47 3.68136e-47 4.51141e-47 5.45259e-47 6.50126e-47 7.64942e-47 8.88475e-47 1.01909e-46 1.15482e-46 1.29345e-46 1.43263e-46 1.57e-46 1.70329e-46 1.83044e-46 1.94968e-46 2.0596e-46 2.15914e-46 2.24764e-46 2.32479e-46 2.39058e-46 2.44529e-46 2.48937e-46 2.52347e-46 2.5483e-46 2.56467e-46 2.5734e-46 2.57531e-46 2.57124e-46 2.56197e-46 2.54828e-46 2.5309e-46 2.51053e-46 2.48784e-46 2.46347e-46 2.43802e-46 2.41209e-46 2.38623e-46 2.36099e-46 2.3369e-46 2.31445e-46 2.2941e-46 2.27629e-46 2.26139e-46 2.2497e-46 2.24145e-46 2.23676e-46 2.23562e-46 2.2379e-46 2.24329e-46 2.25137e-46 2.26153e-46 2.27304e-46 2.2851e-46 2.29681e-46 2.30728e-46 2.31571e-46 2.32138e-46 2.32377e-46 2.32257e-46 2.31773e-46 2.30943e-46 2.29811e-46 2.28437e-46 2.26897e-46 2.25272e-46 2.23641e-46 2.22077e-46 2.20637e-46 2.19362e-46 2.18273e-46 2.17371e-46 2.16641e-46 2.16054e-46 2.15574e-46 2.15162e-46 2.1478e-46 2.144e-46 2.14003e-46 2.13583e-46 2.13149e-46 2.12722e-46 2.12336e-46 2.12033e-46 2.11862e-46 2.11872e-46 2.12113e-46 2.12627e-46 2.1345e-46 2.14607e-46 2.16109e-46 2.17955e-46 2.20129e-46 2.22599e-46 2.25316e-46 2.28215e-46 2.31211e-46 2.34197e-46 2.37049e-46 2.39619e-46 2.41742e-46 2.43235e-46 2.43905e-46 2.43559e-46 2.42009e-46 2.39088e-46 2.34658e-46 2.28629e-46 2.20963e-46 2.11685e-46 2.00886e-46 1.88722e-46 1.75412e-46 1.61221e-46 1.46453e-46 1.31431e-46 1.16477e-46 1.019e-46 8.79735e-47 7.49299e-47 6.29467e-47 5.21445e-47 4.25872e-47 3.42857e-47 2.72051e-47 2.12736e-47 1.63924e-47 1.24458e-47 9.3101e-48 6.86156e-48 4.98214e-48 3.56393e-48 2.51166e-48 1.74389e-48 1.19293e-48 8.04003e-49 5.33913e-49 3.49361e-49 2.25264e-49 1.43138e-49 8.96376e-50 5.53264e-50 3.36601e-50 2.01872e-50 1.19359e-50 6.95803e-51 3.9996e-51 2.26717e-51 1.26746e-51 6.98893e-52 3.80152e-52 2.03994e-52 1.08004e-52 5.64242e-53 2.909e-53 1.4802e-53 7.43435e-54 3.686e-54 1.80428e-54 8.72038e-55 4.16192e-55 1.96161e-55 9.13023e-56 4.19417e-56 1.89479e-56 8.2545e-57 3.0768e-57 0 
0 2.14524e-77 8.1829e-77 2.88776e-76 1.00531e-75 3.46869e-75 1.18658e-74 4.0242e-74 1.35297e-73 4.50913e-73 1.48959e-72 4.87737e-72 1.58277e-71 5.09019e-71 1.62221e-70 5.1228e-70 1.60289e-69 4.96897e-69 1.52604e-68 4.64269e-68 1.39909e-67 4.17604e-67 1.2345e-66 3.61407e-66 1.04771e-65 3.00745e-65 8.54731e-65 2.40492e-64 6.69851e-64 1.84682e-63 5.03971e-63 1.36108e-62 3.63765e-62 9.62015e-62 2.51726e-61 6.51657e-61 1.66885e-60 4.22751e-60 1.0592e-59 2.62459e-59 6.43115e-59 1.55819e-58 3.73264e-58 8.83956e-58 2.0693e-57 4.78793e-57 1.09487e-56 2.47413e-56 5.52436e-56 1.2187e-55 2.65595e-55 5.71751e-55 1.21565e-54 2.5526e-54 5.2927e-54 1.08354e-53 2.19e-53 4.36938e-53 8.60454e-53 1.67232e-52 3.20734e-52 6.0696e-52 1.13322e-51 2.08718e-51 3.79186e-51 6.79427e-51 1.20057e-50 2.09188e-50 3.59378e-50 6.08676e-50 1.01625e-49 1.67244e-49 2.71269e-49 4.33625e-49 6.83056e-49 1.06022e-48 1.62145e-48 2.44319e-48 3.62686e-48 5.30409e-48 7.64158e-48 1.08453e-47 1.51629e-47 2.08841e-47 2.83368e-47 3.788e-47 4.98908e-47 6.47476e-47 8.28074e-47 1.0438e-46 1.29701e-46 1.58903e-46 1.91994e-46 2.28837e-46 2.69141e-46 3.12464e-46 3.58223e-46 4.05718e-46 4.54166e-46 5.02736e-46 5.506e-46 5.96965e-46 6.41115e-46 6.8244e-46 7.20454e-46 7.54804e-46 7.85273e-46 8.11765e-46 8.34297e-46 8.52973e-46 8.67971e-46 8.79517e-46 8.87872e-46 8.93317e-46 8.96141e-46 8.96634e-46 8.95079e-46 8.91751e-46 8.86913e-46 8.80818e-46 8.73704e-46 8.65802e-46 8.57327e-46 8.4849e-46 8.39491e-46 8.30525e-46 8.21776e-46 8.13427e-46 8.05648e-46 7.98601e-46 7.92432e-46 7.87273e-46 7.83228e-46 7.80376e-46 7.78757e-46 7.78371e-46 7.7917e-46 7.81052e-46 7.83864e-46 7.874e-46 7.91409e-46 7.95603e-46 7.99679e-46 8.03328e-46 8.06264e-46 8.08244e-46 8.09084e-46 8.08679e-46 8.07007e-46 8.04137e-46 8.00215e-46 7.95456e-46 7.90121e-46 7.8449e-46 7.78843e-46 7.73427e-46 7.68446e-46 7.64038e-46 7.60276e-46 7.57164e-46 7.54647e-46 7.52627e-46 7.50975e-46 7.49554e-46 7.48238e-46 7.46923e-46 7.45544e-46 7.44084e-46 7.4257e-46 7.4108e-46 7.3973e-46 7.38669e-46 7.38064e-46 7.38091e-46 7.3892e-46 7.407e-46 7.43556e-46 7.47573e-46 7.52795e-46 7.59219e-46 7.6679e-46 7.75399e-46 7.84883e-46 7.95013e-46 8.05499e-46 8.15978e-46 8.26016e-46 8.35105e-46 8.42668e-46 8.48071e-46 8.50643e-46 8.497e-46 8.44585e-46 8.34704e-46 8.19571e-46 7.98854e-46 7.72408e-46 7.40309e-46 7.02861e-46 6.60604e-46 6.14287e-46 5.64838e-46 5.13315e-46 4.60847e-46 4.08568e-46 3.5756e-46 3.08794e-46 2.63087e-46 2.2107e-46 1.83174e-46 1.4963e-46 1.20481e-46 9.56114e-47 7.47716e-47 5.76181e-47 4.37467e-47 3.27242e-47 2.41165e-47 1.75093e-47 1.25236e-47 8.82467e-48 6.12603e-48 4.1897e-48 2.8231e-48 1.87425e-48 1.22605e-48 7.90301e-49 5.0201e-49 3.14266e-49 1.93901e-49 1.17923e-49 7.06945e-50 4.17815e-50 2.43462e-50 1.39885e-50 7.92585e-51 4.42892e-51 2.44102e-51 1.32713e-51 7.11812e-52 3.76683e-52 1.96694e-52 1.01358e-52 5.1549e-53 2.58778e-53 1.2824e-53 6.27419e-54 3.03092e-54 1.44583e-54 6.81119e-55 3.16869e-55 1.4549e-55 6.56969e-56 2.8608e-56 1.06599e-56 0 
0 7.25637e-77 2.76842e-76 9.77191e-76 3.40262e-75 1.17431e-74 4.01806e-74 1.36303e-73 4.58376e-73 1.52805e-72 5.04928e-72 1.65373e-71 5.36806e-71 1.72686e-70 5.50501e-70 1.73895e-69 5.44274e-69 1.68778e-68 5.18508e-68 1.57798e-67 4.75692e-67 1.42034e-66 4.20024e-66 1.23008e-65 3.5673e-65 1.02437e-64 2.91244e-64 8.19781e-64 2.28427e-63 6.30045e-63 1.72002e-62 4.64723e-62 1.24257e-61 3.28754e-61 8.6062e-61 2.22895e-60 5.71085e-60 1.44735e-59 3.62806e-59 8.99429e-59 2.205e-58 5.34513e-58 1.28107e-57 3.03537e-57 7.10935e-57 1.64583e-56 3.76557e-56 8.51381e-56 1.90204e-55 4.19829e-55 9.15454e-55 1.97181e-54 4.1948e-54 8.81309e-54 1.82839e-53 3.74528e-53 7.57404e-53 1.512e-52 2.97923e-52 5.79351e-52 1.11176e-51 2.10509e-51 3.93247e-51 7.24687e-51 1.31728e-50 2.36157e-50 4.17515e-50 7.27857e-50 1.25106e-49 2.11995e-49 3.54114e-49 5.83031e-49 9.46089e-49 1.51296e-48 2.38419e-48 3.70203e-48 5.66367e-48 8.53665e-48 1.26761e-47 1.85428e-47 2.67204e-47 3.79297e-47 5.30378e-47 7.30572e-47 9.91346e-47 1.32523e-46 1.74539e-46 2.26497e-46 2.89637e-46 3.6503e-46 4.53479e-46 5.55428e-46 6.70876e-46 7.99316e-46 9.39701e-46 1.09045e-45 1.2495e-45 1.41438e-45 1.58234e-45 1.75047e-45 1.91588e-45 2.07584e-45 2.22785e-45 2.36985e-45 2.50019e-45 2.61768e-45 2.72164e-45 2.81178e-45 2.88822e-45 2.95137e-45 3.00187e-45 3.04056e-45 3.06835e-45 3.08623e-45 3.09521e-45 3.09628e-45 3.09041e-45 3.07855e-45 3.06158e-45 3.04037e-45 3.01572e-45 2.98842e-45 2.95919e-45 2.92875e-45 2.89778e-45 2.86694e-45 2.83686e-45 2.80817e-45 2.78144e-45 2.75723e-45 2.73604e-45 2.71832e-45 2.70444e-45 2.69466e-45 2.68912e-45 2.68783e-45 2.69061e-45 2.69712e-45 2.70683e-45 2.71904e-45 2.73288e-45 2.74736e-45 2.76143e-45 2.77403e-45 2.78419e-45 2.79104e-45 2.79397e-45 2.79261e-45 2.78689e-45 2.77704e-45 2.76357e-45 2.74722e-45 2.72889e-45 2.70955e-45 2.69015e-45 2.67156e-45 2.65447e-45 2.63935e-45 2.62647e-45 2.61582e-45 2.60722e-45 2.60032e-45 2.59468e-45 2.58983e-45 2.58532e-45 2.5808e-45 2.57606e-45 2.57102e-45 2.56579e-45 2.56063e-45 2.55595e-45 2.55226e-45 2.55015e-45 2.55021e-45 2.55304e-45 2.55915e-45 2.56898e-45 2.58282e-45 2.60083e-45 2.623e-45 2.64915e-45 2.67892e-45 2.71176e-45 2.74688e-45 2.7833e-45 2.81979e-45 2.85486e-45 2.88676e-45 2.91351e-45 2.93293e-45 2.94267e-45 2.94038e-45 2.92375e-45 2.8907e-45 2.8395e-45 2.76896e-45 2.67854e-45 2.56844e-45 2.43969e-45 2.29411e-45 2.13426e-45 1.96336e-45 1.78505e-45 1.60327e-45 1.42195e-45 1.24489e-45 1.07546e-45 9.16557e-46 7.70385e-46 6.38476e-46 5.21657e-46 4.20105e-46 3.33428e-46 2.60776e-46 2.00961e-46 1.52582e-46 1.14135e-46 8.41086e-47 6.10599e-47 4.36681e-47 3.07655e-47 2.13533e-47 1.46007e-47 9.83586e-48 6.52823e-48 4.26922e-48 2.75103e-48 1.7469e-48 1.09319e-48 6.74242e-49 4.09884e-49 2.45623e-49 1.45105e-49 8.45161e-50 4.85381e-50 2.74888e-50 1.53533e-50 8.45798e-51 4.59616e-51 2.46396e-51 1.30325e-51 6.8018e-52 3.50324e-52 1.78078e-52 8.93502e-53 4.42558e-53 2.16412e-53 1.0449e-53 4.98194e-54 2.34576e-54 1.09074e-54 5.00563e-55 2.25922e-55 9.83355e-56 3.66295e-56 0 
0 2.43315e-76 9.2846e-76 3.27798e-75 1.14167e-74 3.94105e-74 1.34882e-73 4.57669e-73 1.5395e-72 5.13348e-72 1.69676e-71 5.55874e-71 1.8049e-70 5.80793e-70 1.85204e-69 5.85214e-69 1.83223e-68 5.68356e-68 1.74664e-67 5.31736e-67 1.6035e-66 4.7895e-66 1.41686e-65 4.15096e-65 1.20426e-64 3.45943e-64 9.83951e-64 2.7707e-63 7.72357e-63 2.1312e-62 5.82063e-62 1.57333e-61 4.20861e-61 1.114e-60 2.91761e-60 7.55996e-60 1.93788e-59 4.9137e-59 1.23232e-58 3.05657e-58 7.49715e-58 1.81832e-57 4.36026e-57 1.03367e-56 2.42232e-56 5.61075e-56 1.28442e-55 2.90563e-55 6.49501e-55 1.43443e-54 3.12961e-54 6.74478e-54 1.43571e-53 3.01811e-53 6.26511e-53 1.2841e-52 2.59834e-52 5.19009e-52 1.02325e-51 1.99101e-51 3.82295e-51 7.24281e-51 1.35379e-50 2.49623e-50 4.53999e-50 8.14363e-50 1.44054e-49 2.51265e-49 4.32105e-49 7.32581e-49 1.2243e-48 2.0167e-48 3.274e-48 5.23795e-48 8.25757e-48 1.28268e-47 1.96306e-47 2.95982e-47 4.39635e-47 6.43275e-47 9.2718e-47 1.31639e-46 1.84101e-46 2.53619e-46 3.4417e-46 4.60096e-46 6.0595e-46 7.86277e-46 1.00534e-45 1.2668e-45 1.5734e-45 1.92658e-45 2.32625e-45 2.77053e-45 3.25569e-45 3.77614e-45 4.32459e-45 4.89242e-45 5.47001e-45 6.0473e-45 6.61428e-45 7.16149e-45 7.68052e-45 8.16426e-45 8.60722e-45 9.00554e-45 9.35699e-45 9.66085e-45 9.91768e-45 1.01291e-44 1.02974e-44 1.04256e-44 1.0517e-44 1.05749e-44 1.06028e-44 1.06042e-44 1.05823e-44 1.05403e-44 1.04813e-44 1.0408e-44 1.03233e-44 1.02297e-44 1.01298e-44 1.00258e-44 9.92005e-45 9.81484e-45 9.7123e-45 9.61449e-45 9.52341e-45 9.44092e-45 9.36876e-45 9.30844e-45 9.26119e-45 9.22793e-45 9.20915e-45 9.20484e-45 9.21445e-45 9.23679e-45 9.27007e-45 9.31187e-45 9.35925e-45 9.40882e-45 9.45701e-45 9.50019e-45 9.535e-45 9.55855e-45 9.56869e-45 9.56417e-45 9.54476e-45 9.51124e-45 9.46536e-45 9.40965e-45 9.34718e-45 9.28127e-45 9.2152e-45 9.15191e-45 9.09376e-45 9.04238e-45 8.99861e-45 8.96248e-45 8.93333e-45 8.90997e-45 8.89088e-45 8.87445e-45 8.85915e-45 8.84378e-45 8.82759e-45 8.81035e-45 8.79242e-45 8.77471e-45 8.75861e-45 8.74589e-45 8.73855e-45 8.73865e-45 8.74822e-45 8.76904e-45 8.80258e-45 8.84988e-45 8.91149e-45 8.9874e-45 9.07702e-45 9.17915e-45 9.29191e-45 9.41273e-45 9.53827e-45 9.66434e-45 9.78591e-45 9.89705e-45 9.99099e-45 1.00602e-44 1.00968e-44 1.00925e-44 1.00393e-44 9.92992e-45 9.75843e-45 9.52051e-45 9.21411e-45 8.83979e-45 8.40088e-45 7.90353e-45 7.35646e-45 6.77063e-45 6.15859e-45 5.53385e-45 4.91005e-45 4.30029e-45 3.71636e-45 3.16825e-45 2.66374e-45 2.20818e-45 1.80454e-45 1.45349e-45 1.15375e-45 9.0244e-46 6.95483e-46 5.28062e-46 3.94994e-46 2.91062e-46 2.11281e-46 1.51082e-46 1.06425e-46 7.38513e-47 5.04861e-47 3.40016e-47 2.25612e-47 1.47496e-47 9.50138e-48 6.03123e-48 3.77288e-48 2.32606e-48 1.41347e-48 8.46664e-49 4.99956e-49 2.91065e-49 1.67082e-49 9.4579e-50 5.27994e-50 2.90722e-50 1.57902e-50 8.46063e-51 4.47272e-51 2.33315e-51 1.20105e-51 6.10201e-52 3.06005e-52 1.51486e-52 7.40382e-53 3.5729e-53 1.70261e-53 8.01258e-54 3.72378e-54 1.70804e-54 7.70517e-55 3.35224e-55 1.24826e-55 0 
0 8.08716e-76 3.08656e-75 1.08998e-74 3.79712e-74 1.31109e-73 4.4883e-73 1.52332e-72 5.12548e-72 1.70956e-71 5.65215e-71 1.85223e-70 6.01586e-70 1.93641e-69 6.17675e-69 1.95236e-68 6.11459e-68 1.89736e-67 5.83284e-67 1.77633e-66 5.3586e-66 1.60114e-65 4.73837e-65 1.38872e-64 4.03044e-64 1.15827e-63 3.29576e-63 9.28435e-63 2.58918e-62 7.14752e-62 1.95296e-61 5.28126e-61 1.41336e-60 3.74286e-60 9.80728e-60 2.54244e-59 6.52034e-59 1.65413e-58 4.15054e-58 1.03e-57 2.52771e-57 6.13382e-57 1.47166e-56 3.49069e-56 8.1847e-56 1.89686e-55 4.34476e-55 9.83443e-55 2.19958e-54 4.86062e-54 1.06111e-53 2.2882e-53 4.87361e-53 1.02513e-52 2.1293e-52 4.36686e-52 8.84159e-52 1.76714e-51 3.48613e-51 6.7873e-51 1.30401e-50 2.47202e-50 4.62332e-50 8.52986e-50 1.55226e-49 2.78598e-49 4.93094e-49 8.60549e-49 1.4807e-48 2.51167e-48 4.19967e-48 6.92121e-48 1.12415e-47 1.79929e-47 2.83778e-47 4.40981e-47 6.75141e-47 1.0183e-46 1.513e-46 2.21443e-46 3.19252e-46 4.53358e-46 6.34135e-46 8.73692e-46 1.18572e-45 1.58514e-45 2.08759e-45 2.70863e-45 3.46283e-45 4.36263e-45 5.4172e-45 6.63126e-45 8.00413e-45 9.52899e-45 1.11925e-44 1.29751e-44 1.48514e-44 1.67913e-44 1.87615e-44 2.07275e-44 2.26548e-44 2.45112e-44 2.62681e-44 2.79018e-44 2.9394e-44 3.07321e-44 3.19093e-44 3.29239e-44 3.37783e-44 3.44788e-44 3.5034e-44 3.54541e-44 3.57507e-44 3.59354e-44 3.60203e-44 3.60167e-44 3.59359e-44 3.57885e-44 3.55845e-44 3.53336e-44 3.50447e-44 3.47265e-44 3.43873e-44 3.40349e-44 3.36771e-44 3.33212e-44 3.29745e-44 3.26439e-44 3.23361e-44 3.20574e-44 3.18137e-44 3.161e-44 3.14506e-44 3.13384e-44 3.12752e-44 3.12611e-44 3.1294e-44 3.137e-44 3.14831e-44 3.16251e-44 3.17859e-44 3.19543e-44 3.21179e-44 3.22646e-44 3.2383e-44 3.24632e-44 3.2498e-44 3.24832e-44 3.24178e-44 3.23047e-44 3.21498e-44 3.19615e-44 3.17504e-44 3.15278e-44 3.13046e-44 3.1091e-44 3.08948e-44 3.07215e-44 3.05741e-44 3.04526e-44 3.03546e-44 3.02762e-44 3.02122e-44 3.0157e-44 3.01055e-44 3.00536e-44 2.99988e-44 2.99403e-44 2.98794e-44 2.98191e-44 2.97642e-44 2.97207e-44 2.96954e-44 2.96954e-44 2.97275e-44 2.97978e-44 2.99113e-44 3.00717e-44 3.02807e-44 3.05385e-44 3.08431e-44 3.11906e-44 3.15748e-44 3.19871e-44 3.24164e-44 3.28486e-44 3.32669e-44 3.36512e-44 3.39787e-44 3.42238e-44 3.43594e-44 3.43573e-44 3.41902e-44 3.38328e-44 3.32643e-44 3.24694e-44 3.14406e-44 3.01791e-44 2.86959e-44 2.70112e-44 2.51545e-44 2.3163e-44 2.10794e-44 1.89497e-44 1.68209e-44 1.47379e-44 1.27414e-44 1.08658e-44 9.13825e-45 7.57736e-45 6.1936e-45 4.9896e-45 3.96119e-45 3.09865e-45 2.38816e-45 1.8133e-45 1.35633e-45 9.99385e-46 7.25379e-46 5.18631e-46 3.65272e-46 2.53422e-46 1.73204e-46 1.1662e-46 7.73584e-47 5.0558e-47 3.25571e-47 2.06589e-47 1.29183e-47 7.96118e-48 4.8357e-48 2.89528e-48 1.70888e-48 9.9441e-49 5.70552e-49 3.22808e-49 1.80119e-49 9.9125e-50 5.38103e-50 2.88172e-50 1.52261e-50 7.93827e-51 4.08422e-51 2.07389e-51 1.03945e-51 5.14295e-52 2.51222e-52 1.21168e-52 5.77091e-53 2.71436e-53 1.2608e-53 5.78003e-54 2.60609e-54 1.13328e-54 4.21845e-55 0 