# vtk DataFile Version 3.0
Gray-Scott Simulation Output
ASCII
DATASET STRUCTURED_POINTS
DIMENSIONS 256 256 1
SPACING 1.0 1.0 1.0
ORIGIN 0 0 0
POINT_DATA 65536
SCALARS u double
LOOKUP_TABLE default
0 0 0 0 0 0 0 0 0 0 0 0 0 0 0 0 0 0 0 0 0 0 0 0 0 0 0 0 0 0 0 0 0 0 0 0 0 0 0 0 0 0 0 0 0 0 0 0 0 0 0 0 0 0 0 0 0 0 0 0 0 0 0 0 0 0 0 0 0 0 0 0 0 0 0 0 0 0 0 0 0 0 0 0 0 0 0 0 0 0 0 0 0 0 0 0 0 0 0 0 0 0 0 0 0 0 0 0 0 0 0 0 0 0 0 0 0 0 0 0 0 0 0 0 0 0 0 0 0 0 0 0 0 0 0 0 0 0 0 0 0 0 0 0 0 0 0 0 0 0 0 0 0 0 0 0 0 0 0 0 0 0 0 0 0 0 0 0 0 0 0 0 0 0 0 0 0 0 0 0 0 0 0 0 0 0 0 0 0 0 0 0 0 0 0 0 0 0 0 0 0 0 0 0 0 0 0 0 0 0 0 0 0 0 0 0 0 0 0 0 0 0 0 0 0 0 0 0 0 0 0 0 0 0 0 0 0 0 0 0 0 0 0 0 0 0 0 0 0 0 0 0 0 0 0 0 
0 3.73125e-253 2.13184e-251 1.20241e-249 6.69628e-248 3.68177e-246 1.99838e-244 1.07065e-242 5.66143e-241 2.95434e-239 1.52127e-237 7.72877e-236 3.87369e-234 1.91512e-232 9.33838e-231 4.49052e-229 2.1292e-227 9.9534e-226 4.58675e-224 2.08332e-222 9.32532e-221 4.11305e-219 1.78728e-217 7.65036e-216 3.22526e-214 1.33897e-212 5.473e-211 2.2022e-209 8.72146e-208 3.39893e-206 1.30328e-204 4.91574e-203 1.82353e-201 6.65154e-200 2.3852e-198 8.40672e-197 2.91161e-195 9.90703e-194 3.31097e-192 1.08658e-190 3.50072e-189 1.10694e-187 3.43438e-186 1.04522e-184 3.11944e-183 9.12697e-182 2.61711e-180 7.35231e-179 2.02296e-177 5.4496e-176 1.4368e-174 3.70615e-173 9.34918e-172 2.30555e-170 5.55574e-169 1.30763e-167 3.00473e-166 6.73744e-165 1.47345e-163 3.14123e-162 6.52453e-161 1.31958e-159 2.59712e-158 4.97102e-157 9.24712e-156 1.67058e-154 2.92892e-153 4.97947e-152 8.20227e-151 1.30791e-149 2.01703e-148 3.00538e-147 4.32199e-146 5.99202e-145 7.99912e-144 1.0269e-142 1.26598e-141 1.49654e-140 1.69359e-139 1.83157e-138 1.88932e-137 1.85505e-136 1.72976e-135 1.52796e-134 1.27509e-133 1.0022e-132 7.39389e-132 5.10106e-131 3.27694e-130 1.95079e-129 1.07032e-128 5.37857e-128 2.45785e-127 1.01293e-126 3.72889e-126 1.2127e-125 3.44052e-125 8.39788e-125 1.73904e-124 3.02185e-124 4.40075e-124 5.47166e-124 6.05379e-124 6.24499e-124 6.26536e-124 6.44165e-124 7.05846e-124 8.07873e-124 9.03465e-124 9.45616e-124 9.35236e-124 9.16574e-124 9.29536e-124 9.66612e-124 9.88211e-124 9.74257e-124 9.405e-124 9.05331e-124 8.58248e-124 7.91137e-124 7.31131e-124 7.19028e-124 7.61655e-124 8.23301e-124 8.57621e-124 8.37926e-124 7.72881e-124 6.88818e-124 6.10749e-124 5.64695e-124 5.63853e-124 5.94651e-124 6.36804e-124 6.82177e-124 7.11991e-124 6.9775e-124 6.36241e-124 5.54043e-124 4.87092e-124 4.6815e-124 5.07506e-124 5.85265e-124 6.65162e-124 7.23394e-124 7.70604e-124 8.24402e-124 8.80593e-124 9.20018e-124 9.26654e-124 9.00253e-124 8.48685e-124 7.70879e-124 6.68435e-124 5.59267e-124 4.74507e-124 4.32425e-124 4.35156e-124 4.84877e-124 5.71615e-124 6.5783e-124 7.02614e-124 6.91543e-124 6.38022e-124 5.82758e-124 5.72044e-124 6.14671e-124 6.6723e-124 6.76077e-124 6.34716e-124 5.87409e-124 5.73535e-124 5.85289e-124 5.88945e-124 5.68459e-124 5.31175e-124 4.90075e-124 4.65313e-124 4.72696e-124 5.07808e-124 5.65419e-124 6.53005e-124 7.48659e-124 7.95891e-124 7.63196e-124 6.77429e-124 6.05648e-124 6.0628e-124 6.79671e-124 7.69099e-124 8.21902e-124 8.43662e-124 8.78064e-124 9.47744e-124 1.02885e-123 1.08298e-123 1.09287e-123 1.05879e-123 9.84475e-124 8.77464e-124 7.4126e-124 5.70498e-124 3.81606e-124 2.16181e-124 1.03351e-124 4.2051e-125 1.47471e-125 4.51686e-126 1.22312e-126 2.96009e-127 6.46322e-128 1.28368e-128 2.33568e-129 3.91754e-130 6.08993e-131 8.81628e-132 1.19364e-132 1.51708e-133 1.81617e-134 2.05418e-135 2.20111e-136 2.24e-137 2.1699e-138 2.00502e-139 1.77056e-140 1.49683e-141 1.21342e-142 9.44654e-144 7.07234e-145 5.09851e-146 3.54354e-147 2.37704e-148 1.54063e-149 9.6573e-151 5.86021e-152 3.4455e-153 1.96442e-154 1.08692e-155 5.84077e-157 3.05037e-158 1.5493e-159 7.65768e-161 3.68551e-162 1.72817e-163 7.89958e-165 3.52189e-166 1.53221e-167 6.50794e-169 2.69989e-170 1.09451e-171 4.33755e-173 1.68111e-174 6.37451e-176 2.36567e-177 8.5956e-179 3.05524e-180 0 
0 2.13159e-251 1.21489e-249 6.83547e-248 3.79741e-246 2.08282e-244 1.12775e-242 6.02741e-241 3.17948e-239 1.65517e-237 8.50236e-236 4.30923e-234 2.15463e-232 1.06269e-230 5.16945e-229 2.47991e-227 1.17307e-225 5.4708e-224 2.51512e-222 1.13969e-220 5.08948e-219 2.23952e-217 9.70885e-216 4.14614e-214 1.74388e-212 7.22293e-211 2.94553e-209 1.18247e-207 4.67222e-206 1.81668e-204 6.94987e-203 2.61538e-201 9.67986e-200 3.52281e-198 1.26039e-196 4.43226e-195 1.53162e-193 5.19974e-192 1.73388e-190 5.67743e-189 1.82505e-187 5.75803e-186 1.78251e-184 5.41285e-183 1.61188e-181 4.70569e-180 1.34636e-178 3.77407e-177 1.03615e-175 2.78515e-174 7.32713e-173 1.88589e-171 4.74706e-170 1.16812e-168 2.80877e-167 6.59667e-166 1.51256e-164 3.38432e-163 7.38558e-162 1.57117e-160 3.2565e-159 6.57228e-158 1.29079e-156 2.46545e-155 4.57661e-154 8.2508e-153 1.44354e-151 2.44906e-150 4.02578e-149 6.40613e-148 9.85899e-147 1.46598e-145 2.10388e-144 2.91088e-143 3.87801e-142 4.96839e-141 6.11276e-140 7.21148e-139 8.14466e-138 8.79066e-137 9.04987e-136 8.86818e-135 8.25298e-134 7.27593e-133 6.06003e-132 4.75387e-131 3.50056e-130 2.41047e-129 1.54559e-128 9.18401e-128 5.02971e-127 2.523e-126 1.15092e-125 4.73511e-125 1.74028e-124 5.65091e-124 1.60091e-123 3.90265e-123 8.07314e-123 1.40177e-122 2.04062e-122 2.53709e-122 2.8074e-122 2.8966e-122 2.9068e-122 2.98936e-122 3.27577e-122 3.74853e-122 4.19128e-122 4.38675e-122 4.33914e-122 4.25305e-122 4.31303e-122 4.48454e-122 4.58466e-122 4.52036e-122 4.36403e-122 4.20047e-122 3.98159e-122 3.67047e-122 3.3927e-122 3.33673e-122 3.53398e-122 3.81923e-122 3.97793e-122 3.88655e-122 3.585e-122 3.19518e-122 2.83328e-122 2.61983e-122 2.61575e-122 2.75838e-122 2.95389e-122 3.16411e-122 3.30191e-122 3.23574e-122 2.95084e-122 2.5702e-122 2.26031e-122 2.17275e-122 2.35507e-122 2.71523e-122 3.08547e-122 3.3558e-122 3.57521e-122 3.82493e-122 4.08555e-122 4.26835e-122 4.29915e-122 4.17666e-122 3.93718e-122 3.576e-122 3.1008e-122 2.59466e-122 2.20153e-122 2.00614e-122 2.01877e-122 2.2493e-122 2.65118e-122 3.05066e-122 3.25841e-122 3.2074e-122 2.95979e-122 2.70406e-122 2.65434e-122 2.85127e-122 3.09427e-122 3.13537e-122 2.94438e-122 2.72562e-122 2.66105e-122 2.71495e-122 2.73164e-122 2.63672e-122 2.46388e-122 2.27349e-122 2.15895e-122 2.19333e-122 2.35639e-122 2.62404e-122 3.0301e-122 3.47282e-122 3.69122e-122 3.53976e-122 3.14278e-122 2.81062e-122 2.81348e-122 3.15297e-122 3.56695e-122 3.81205e-122 3.9138e-122 4.07393e-122 4.39707e-122 4.77306e-122 5.02428e-122 5.07045e-122 4.91249e-122 4.56784e-122 4.0713e-122 3.43908e-122 2.64691e-122 1.77114e-122 1.00408e-122 4.80524e-123 1.95758e-123 6.87493e-124 2.10895e-124 5.72009e-125 1.38668e-125 3.03304e-126 6.03476e-127 1.10004e-127 1.84845e-128 2.87885e-129 4.17554e-130 5.66405e-131 7.21269e-132 8.65143e-133 9.80429e-134 1.05262e-134 1.07333e-135 1.0418e-136 9.64558e-138 8.53468e-139 7.22974e-140 5.87267e-141 4.58117e-142 3.43675e-143 2.48264e-144 1.72901e-145 1.16222e-146 7.5482e-148 4.7413e-149 2.88307e-150 1.69862e-151 9.70474e-153 5.38093e-154 2.8976e-155 1.51647e-156 7.71852e-158 3.82308e-159 1.84389e-160 8.66458e-162 3.96909e-163 1.77334e-164 7.73154e-166 3.29097e-167 1.36824e-168 5.55871e-170 2.2077e-171 8.57504e-173 3.2586e-174 1.21196e-175 4.41327e-177 1.5721e-178 0 
0 1.20213e-249 6.83466e-248 3.83607e-246 2.12591e-244 1.16319e-242 6.28286e-241 3.34982e-239 1.76277e-237 9.15451e-236 4.69125e-234 2.37196e-232 1.18315e-230 5.82151e-229 2.82514e-227 1.35207e-225 6.38056e-224 2.96865e-222 1.36158e-220 6.15531e-219 2.74231e-217 1.20388e-215 5.20693e-214 2.21844e-212 9.30914e-211 3.84681e-209 1.56512e-207 6.26864e-206 2.47119e-204 9.5866e-203 3.65906e-201 1.37384e-199 5.07319e-198 1.84211e-196 6.57577e-195 2.30719e-193 7.95481e-192 2.69454e-190 8.96492e-189 2.92893e-187 9.39425e-186 2.95729e-184 9.13452e-183 2.7677e-181 8.22368e-180 2.39551e-178 6.83884e-177 1.91283e-175 5.2401e-174 1.40546e-172 3.68942e-171 9.47536e-170 2.37993e-168 5.84369e-167 1.40211e-165 3.28592e-164 7.51821e-163 1.67859e-161 3.65538e-160 7.75976e-159 1.60492e-157 3.23222e-156 6.33469e-155 1.2074e-153 2.23661e-152 4.02377e-151 7.02522e-150 1.1894e-148 1.9511e-147 3.09833e-146 4.7585e-145 7.06113e-144 1.0113e-142 1.39636e-141 1.85652e-140 2.3737e-139 2.91456e-138 3.43153e-137 3.86783e-136 4.1663e-135 4.28067e-134 4.18646e-133 3.8884e-132 3.42139e-131 2.84411e-130 2.22681e-129 1.63661e-128 1.12483e-127 7.19894e-127 4.26975e-126 2.33411e-125 1.16874e-124 5.32215e-124 2.18593e-123 8.02076e-123 2.60042e-122 7.35649e-122 1.79106e-121 3.70117e-121 6.42167e-121 9.3447e-121 1.16177e-120 1.28572e-120 1.32682e-120 1.33184e-120 1.37002e-120 1.50136e-120 1.7177e-120 1.92021e-120 2.00973e-120 1.98816e-120 1.94894e-120 1.97636e-120 2.05471e-120 2.10054e-120 2.07128e-120 1.99979e-120 1.92466e-120 1.82418e-120 1.68173e-120 1.55476e-120 1.52919e-120 1.61933e-120 1.74968e-120 1.82216e-120 1.78029e-120 1.64222e-120 1.4637e-120 1.29802e-120 1.20032e-120 1.19837e-120 1.2636e-120 1.35316e-120 1.44934e-120 1.51224e-120 1.48188e-120 1.35156e-120 1.17749e-120 1.03584e-120 9.95864e-121 1.07928e-120 1.24402e-120 1.41345e-120 1.53739e-120 1.63809e-120 1.75257e-120 1.87194e-120 1.95565e-120 1.96976e-120 1.91364e-120 1.80381e-120 1.63823e-120 1.42055e-120 1.1888e-120 1.00872e-120 9.19128e-121 9.24893e-121 1.03045e-120 1.21434e-120 1.39714e-120 1.49231e-120 1.46911e-120 1.35598e-120 1.23911e-120 1.21632e-120 1.30617e-120 1.41712e-120 1.43598e-120 1.34889e-120 1.24898e-120 1.21931e-120 1.24372e-120 1.25124e-120 1.20781e-120 1.12867e-120 1.04157e-120 9.89254e-121 1.00505e-120 1.07984e-120 1.20264e-120 1.38856e-120 1.59092e-120 1.69065e-120 1.62135e-120 1.43989e-120 1.28809e-120 1.28937e-120 1.44446e-120 1.63372e-120 1.74607e-120 1.79305e-120 1.86666e-120 2.01466e-120 2.1868e-120 2.30194e-120 2.32321e-120 2.25093e-120 2.09307e-120 1.86554e-120 1.57572e-120 1.21281e-120 8.11821e-121 4.60562e-121 2.20637e-121 8.99967e-122 3.16512e-122 9.72419e-123 2.64177e-123 6.41508e-124 1.40559e-124 2.80166e-125 5.11624e-126 8.61295e-127 1.34392e-127 1.95292e-128 2.65415e-129 3.38633e-130 4.06967e-131 4.62095e-132 4.97091e-133 5.0787e-134 4.93928e-135 4.58215e-136 4.06252e-137 3.44826e-138 2.80664e-139 2.19384e-140 1.64914e-141 1.19373e-142 8.3306e-144 5.6112e-145 3.65179e-146 2.29855e-147 1.40059e-148 8.26901e-150 4.73418e-151 2.63041e-152 1.41943e-153 7.44427e-155 3.79696e-156 1.88466e-157 9.10905e-159 4.28952e-160 1.96914e-161 8.81664e-163 3.85219e-164 1.64323e-165 6.84654e-167 2.78753e-168 1.10949e-169 4.3188e-171 1.64476e-172 6.13064e-174 2.23732e-175 7.98725e-177 0 
0 6.69392e-248 3.79651e-246 2.12565e-244 1.17515e-242 6.4142e-241 3.45619e-239 1.83828e-237 9.65027e-236 4.99958e-234 2.5559e-232 1.28921e-230 6.41534e-229 3.14906e-227 1.52459e-225 7.27921e-224 3.42702e-222 1.59072e-220 7.27872e-219 3.28279e-217 1.45913e-215 6.39066e-214 2.75761e-212 1.17217e-210 4.90733e-209 2.02317e-207 8.21253e-206 3.28175e-204 1.29075e-202 4.99581e-201 1.90247e-199 7.12684e-198 2.62576e-196 9.51271e-195 3.38809e-193 1.18608e-191 4.0802e-190 1.37899e-188 4.57774e-187 1.49226e-185 4.77562e-184 1.50002e-182 4.62303e-181 1.39765e-179 4.14371e-178 1.20439e-176 3.43081e-175 9.57507e-174 2.61731e-172 7.00469e-171 1.83479e-169 4.702e-168 1.17846e-166 2.88735e-165 6.91291e-164 1.61661e-162 3.69092e-161 8.22316e-160 1.78691e-158 3.78527e-157 7.8124e-156 1.57006e-154 3.07062e-153 5.84038e-152 1.07962e-150 1.93825e-149 3.37701e-148 5.7056e-147 9.34014e-146 1.48016e-144 2.2686e-143 3.35948e-142 4.80166e-141 6.61646e-140 8.77907e-139 1.12021e-137 1.37269e-136 1.61293e-135 1.81439e-134 1.95052e-133 2.0001e-132 1.95224e-131 1.80971e-130 1.58926e-129 1.31856e-128 1.0304e-127 7.55856e-127 5.18517e-126 3.31233e-125 1.96095e-124 1.07003e-123 5.34836e-123 2.43126e-122 9.96884e-122 3.65189e-121 1.18216e-120 3.33953e-120 8.12039e-120 1.6763e-119 2.90627e-119 4.22753e-119 5.2556e-119 5.81712e-119 6.00419e-119 6.02846e-119 6.20289e-119 6.79789e-119 7.7759e-119 8.69101e-119 9.09603e-119 8.99952e-119 8.82299e-119 8.94677e-119 9.30037e-119 9.50762e-119 9.37608e-119 9.05311e-119 8.71225e-119 8.25649e-119 7.61223e-119 7.03878e-119 6.92344e-119 7.33039e-119 7.91884e-119 8.24582e-119 8.05627e-119 7.43179e-119 6.6241e-119 5.87478e-119 5.43296e-119 5.42381e-119 5.71853e-119 6.12377e-119 6.55854e-119 6.84221e-119 6.70459e-119 6.11565e-119 5.32923e-119 4.68957e-119 4.5093e-119 4.88633e-119 5.63074e-119 6.39677e-119 6.95813e-119 7.41472e-119 7.93315e-119 8.47335e-119 8.85204e-119 8.91591e-119 8.66187e-119 8.16423e-119 7.41433e-119 6.42918e-119 5.38086e-119 4.56598e-119 4.16014e-119 4.18612e-119 4.66363e-119 5.49489e-119 6.32127e-119 6.75202e-119 6.64778e-119 6.13709e-119 5.60947e-119 5.50628e-119 5.91127e-119 6.4117e-119 6.49721e-119 6.10488e-119 5.65414e-119 5.51943e-119 5.62859e-119 5.66212e-119 5.46575e-119 5.10783e-119 4.71414e-119 4.47805e-119 4.54981e-119 4.88865e-119 5.44523e-119 6.28619e-119 7.19998e-119 7.64988e-119 7.33668e-119 6.51723e-119 5.8319e-119 5.83754e-119 6.53743e-119 7.39225e-119 7.90102e-119 8.11532e-119 8.44959e-119 9.1192e-119 9.8978e-119 1.04191e-118 1.0516e-118 1.01892e-118 9.47493e-119 8.44488e-119 7.13245e-119 5.48991e-119 3.67609e-119 2.08701e-119 1.00082e-119 4.08739e-120 1.43954e-120 4.42945e-121 1.2053e-121 2.93178e-122 6.4349e-123 1.2849e-123 2.35066e-124 3.9645e-125 6.19751e-126 9.0229e-127 1.2286e-127 1.57052e-128 1.89109e-129 2.15143e-130 2.31888e-131 2.37381e-132 2.3132e-133 2.15021e-134 1.91016e-135 1.62459e-136 1.32496e-137 1.03775e-138 7.81674e-140 5.66965e-141 3.96469e-142 2.67594e-143 1.74508e-144 1.10068e-145 6.72064e-147 3.97606e-148 2.2811e-149 1.27007e-150 6.86794e-152 3.60947e-153 1.84489e-154 9.17657e-156 4.44466e-157 2.09746e-158 9.64902e-160 4.32948e-161 1.89569e-162 8.10376e-164 3.3837e-165 1.38062e-166 5.50703e-168 2.1483e-169 8.19931e-171 3.06284e-172 1.12019e-173 4.00784e-175 0 
0 3.68002e-246 2.08206e-244 1.1629e-242 6.41341e-241 3.4921e-239 1.87712e-237 9.95997e-236 5.21604e-234 2.69583e-232 1.37488e-230 6.9184e-229 3.43453e-227 1.68189e-225 8.12346e-224 3.86941e-222 1.81741e-220 8.41605e-219 3.84195e-217 1.72871e-215 7.66584e-214 3.34965e-212 1.44204e-210 6.11544e-209 2.55435e-207 1.05067e-205 4.25512e-204 1.69646e-202 6.6571e-201 2.57074e-199 9.76746e-198 3.65068e-196 1.34198e-194 4.85081e-193 1.72379e-191 6.02097e-190 2.06662e-188 6.96898e-187 2.30828e-185 7.50782e-184 2.39737e-182 7.51344e-181 2.31052e-179 6.96986e-178 2.06186e-176 5.97975e-175 1.69967e-173 4.73325e-172 1.29101e-170 3.44761e-169 9.01101e-168 2.30427e-166 5.76271e-165 1.4089e-163 3.36597e-162 7.85463e-161 1.78948e-159 3.9784e-158 8.62683e-157 1.82359e-155 3.75576e-154 7.53208e-153 1.46999e-151 2.79011e-150 5.14689e-149 9.22102e-148 1.60325e-146 2.70316e-145 4.416e-144 6.98378e-143 1.0682e-141 1.57862e-140 2.25172e-139 3.09647e-138 4.10027e-137 5.22141e-136 6.38542e-135 7.48801e-134 8.40652e-133 9.01939e-132 9.23045e-131 8.99192e-130 8.31917e-129 7.29162e-128 6.03799e-127 4.7094e-126 3.44807e-125 2.36093e-124 1.50538e-123 8.89572e-123 4.84535e-122 2.41756e-121 1.09707e-120 4.4907e-120 1.64242e-119 5.30854e-119 1.4975e-118 3.63675e-118 7.49957e-118 1.29927e-117 1.88922e-117 2.34855e-117 2.59984e-117 2.68394e-117 2.69549e-117 2.7742e-117 3.04046e-117 3.47721e-117 3.88569e-117 4.0667e-117 4.02403e-117 3.94555e-117 4.00075e-117 4.15839e-117 4.25097e-117 4.19257e-117 4.04843e-117 3.89566e-117 3.69148e-117 3.40363e-117 3.1478e-117 3.0964e-117 3.27789e-117 3.5403e-117 3.68602e-117 3.60125e-117 3.32223e-117 2.96126e-117 2.62649e-117 2.42913e-117 2.42488e-117 2.55642e-117 2.73756e-117 2.93169e-117 3.05806e-117 2.99644e-117 2.73354e-117 2.38258e-117 2.09725e-117 2.01694e-117 2.18528e-117 2.51756e-117 2.85967e-117 3.11082e-117 3.31533e-117 3.54726e-117 3.78873e-117 3.95796e-117 3.98651e-117 3.87291e-117 3.65019e-117 3.3147e-117 2.87429e-117 2.40586e-117 2.0416e-117 1.86e-117 1.87157e-117 2.08494e-117 2.45613e-117 2.82516e-117 3.01775e-117 2.97148e-117 2.74378e-117 2.50847e-117 2.4623e-117 2.64262e-117 2.8656e-117 2.9039e-117 2.72931e-117 2.52843e-117 2.46803e-117 2.51626e-117 2.53101e-117 2.44331e-117 2.28339e-117 2.10762e-117 2.00237e-117 2.03456e-117 2.18622e-117 2.43541e-117 2.81116e-117 3.21877e-117 3.41926e-117 3.27943e-117 2.91388e-117 2.60823e-117 2.61068e-117 2.92269e-117 3.30407e-117 3.53166e-117 3.62821e-117 3.77815e-117 4.07743e-117 4.42531e-117 4.65849e-117 4.70205e-117 4.5561e-117 4.23686e-117 3.77624e-117 3.18914e-117 2.45479e-117 1.64432e-117 9.34187e-118 4.48443e-118 1.83373e-118 6.46729e-119 1.99302e-119 5.43194e-120 1.32349e-120 2.90993e-121 5.82074e-122 1.0668e-122 1.8025e-123 2.82299e-124 4.11768e-125 5.61744e-126 7.19451e-127 8.67965e-128 9.89366e-129 1.06845e-129 1.0959e-130 1.07002e-131 9.96592e-133 8.87093e-134 7.55976e-135 6.17783e-136 4.84843e-137 3.65938e-138 2.65961e-139 1.8636e-140 1.26039e-141 8.23632e-143 5.20555e-144 3.18502e-145 1.88821e-146 1.08553e-147 6.05659e-149 3.28194e-150 1.72844e-151 8.853e-153 4.41279e-154 2.14184e-155 1.01288e-156 4.66948e-158 2.09963e-159 9.21297e-161 3.94681e-162 1.65151e-163 6.75301e-165 2.69945e-166 1.05533e-167 4.03656e-169 1.51113e-170 5.53878e-172 1.98598e-173 0 
0 1.99717e-244 1.1272e-242 6.28053e-241 3.45532e-239 1.87688e-237 1.00645e-235 5.3274e-234 2.78327e-232 1.43505e-230 7.30134e-229 3.66531e-227 1.81527e-225 8.86831e-224 4.27325e-222 2.03066e-220 9.51534e-219 4.39603e-217 2.00211e-215 8.98761e-214 3.97622e-212 1.73341e-210 7.44515e-209 3.15006e-207 1.31271e-205 5.38712e-204 2.17673e-202 8.65851e-201 3.38995e-199 1.3061e-197 4.95124e-196 1.84638e-194 6.77193e-193 2.44231e-191 8.65954e-190 3.01787e-188 1.03353e-186 3.47746e-185 1.14925e-183 3.7297e-182 1.18832e-180 3.71601e-179 1.14022e-177 3.43201e-176 1.01305e-174 2.9316e-173 8.3145e-172 2.3104e-170 6.28799e-169 1.67556e-167 4.36996e-166 1.11507e-164 2.78266e-163 6.78864e-162 1.61839e-160 3.76854e-159 8.56745e-158 1.90069e-156 4.11277e-155 8.67547e-154 1.783e-152 3.56825e-151 6.94938e-150 1.31627e-148 2.42307e-147 4.33211e-146 7.51663e-145 1.26473e-143 2.06187e-142 3.25412e-141 4.96713e-140 7.3257e-139 1.0428e-137 1.43112e-136 1.89124e-135 2.40353e-134 2.93348e-133 3.43316e-132 3.84665e-131 4.11894e-130 4.20705e-129 4.09032e-128 3.77694e-127 3.30403e-126 2.73073e-125 2.1258e-124 1.5535e-123 1.06171e-122 6.75712e-122 3.98567e-121 2.16702e-120 1.07931e-119 4.88932e-119 1.99802e-118 7.29572e-118 2.35448e-117 6.63246e-117 1.6087e-116 3.31398e-116 5.73709e-116 8.33894e-116 1.0366e-115 1.14766e-115 1.18501e-115 1.19042e-115 1.2255e-115 1.34319e-115 1.53583e-115 1.71592e-115 1.79582e-115 1.77719e-115 1.74272e-115 1.76704e-115 1.83646e-115 1.87731e-115 1.85169e-115 1.78816e-115 1.72053e-115 1.63018e-115 1.50315e-115 1.39043e-115 1.3678e-115 1.44774e-115 1.56333e-115 1.62747e-115 1.59003e-115 1.46689e-115 1.30754e-115 1.15981e-115 1.07274e-115 1.07079e-115 1.12878e-115 1.20875e-115 1.29437e-115 1.34997e-115 1.32272e-115 1.20681e-115 1.05211e-115 9.26398e-116 8.91064e-116 9.65299e-116 1.1118e-115 1.26271e-115 1.3737e-115 1.46417e-115 1.56665e-115 1.67326e-115 1.74796e-115 1.76056e-115 1.71039e-115 1.61193e-115 1.46368e-115 1.26922e-115 1.06248e-115 9.01648e-116 8.21382e-116 8.2647e-116 9.20641e-116 1.08436e-115 1.24713e-115 1.33218e-115 1.3119e-115 1.21162e-115 1.10796e-115 1.08756e-115 1.16686e-115 1.265e-115 1.28194e-115 1.20521e-115 1.11678e-115 1.09003e-115 1.11108e-115 1.11748e-115 1.07879e-115 1.00822e-115 9.30704e-116 8.8436e-116 8.98626e-116 9.65667e-116 1.07586e-115 1.24169e-115 1.42128e-115 1.50953e-115 1.44786e-115 1.28679e-115 1.15215e-115 1.1532e-115 1.29059e-115 1.45865e-115 1.55921e-115 1.60217e-115 1.6686e-115 1.80072e-115 1.95425e-115 2.05726e-115 2.07661e-115 2.01223e-115 1.8713e-115 1.66785e-115 1.40845e-115 1.08417e-115 7.26473e-116 4.13023e-116 1.98466e-116 8.12554e-117 2.86976e-117 8.85714e-118 2.41788e-118 5.90101e-119 1.29968e-119 2.60434e-120 4.7817e-121 8.09411e-122 1.27e-122 1.85592e-123 2.53668e-124 3.25502e-125 3.93447e-126 4.49344e-127 4.86204e-128 4.9967e-129 4.88829e-130 4.5618e-131 4.06863e-132 3.47416e-133 2.84475e-134 2.23707e-135 1.69185e-136 1.2321e-137 8.65093e-139 5.8627e-140 3.83894e-141 2.43127e-142 1.49063e-143 8.85529e-145 5.10142e-146 2.85218e-147 1.54875e-148 8.17354e-150 4.19521e-151 2.0955e-152 1.01923e-153 4.83014e-155 2.23145e-156 1.0055e-157 4.42142e-159 1.89816e-160 7.9597e-162 3.26168e-163 1.30663e-164 5.1192e-166 1.96228e-167 7.3619e-169 2.70424e-170 9.71738e-172 0 
0 1.06987e-242 6.02368e-241 3.34814e-239 1.83758e-237 9.9574e-236 5.3267e-234 2.8128e-232 1.46602e-230 7.54076e-229 3.8275e-227 1.91686e-225 9.47091e-224 4.616e-222 2.21901e-220 1.052e-218 4.91796e-217 2.26675e-215 1.02995e-213 4.61278e-212 2.03601e-210 8.85532e-209 3.79465e-207 1.60183e-205 6.65991e-204 2.72683e-202 1.09929e-200 4.36274e-199 1.7042e-197 6.55114e-196 2.47782e-194 9.21923e-193 3.3737e-191 1.214e-189 4.29475e-188 1.49338e-186 5.10298e-185 1.71315e-183 5.64914e-182 1.82928e-180 5.81538e-179 1.81453e-177 5.55547e-176 1.6685e-174 4.91426e-173 1.419e-171 4.01578e-170 1.11347e-168 3.02385e-167 8.04028e-166 2.09243e-164 5.32771e-163 1.32669e-161 3.2297e-160 7.68311e-159 1.78526e-157 4.05003e-156 8.966e-155 1.936e-153 4.07521e-152 8.35787e-151 1.66913e-149 3.24396e-148 6.13156e-147 1.12639e-145 2.00966e-144 3.47978e-143 5.84295e-142 9.50616e-141 1.49723e-139 2.28074e-138 3.35689e-137 4.76882e-136 6.53144e-135 8.61402e-134 1.09255e-132 1.33078e-131 1.55437e-130 1.73813e-129 1.85751e-128 1.89352e-127 1.8374e-126 1.69334e-125 1.47846e-124 1.21959e-123 9.47614e-123 6.91195e-122 4.71501e-121 2.99527e-120 1.76353e-119 9.5711e-119 4.75858e-118 2.15195e-117 8.77923e-117 3.20056e-116 1.03132e-115 2.90108e-115 7.02777e-115 1.44626e-114 2.50189e-114 3.63517e-114 4.51862e-114 5.00345e-114 5.16725e-114 5.1922e-114 5.34655e-114 5.86029e-114 6.69947e-114 7.48365e-114 7.83197e-114 7.75162e-114 7.60211e-114 7.70789e-114 8.00979e-114 8.18782e-114 8.07687e-114 7.80026e-114 7.50463e-114 7.1098e-114 6.55617e-114 6.0656e-114 5.96725e-114 6.31504e-114 6.81784e-114 7.09666e-114 6.93331e-114 6.3966e-114 5.70192e-114 5.05808e-114 4.67863e-114 4.66986e-114 4.92233e-114 5.27103e-114 5.64395e-114 5.88558e-114 5.76657e-114 5.26182e-114 4.58839e-114 4.04139e-114 3.88785e-114 4.21118e-114 4.84908e-114 5.50652e-114 5.99089e-114 6.38617e-114 6.8334e-114 7.2983e-114 7.6239e-114 7.67887e-114 7.46e-114 7.03013e-114 6.38317e-114 5.53514e-114 4.63398e-114 3.93267e-114 3.5823e-114 3.60439e-114 4.01486e-114 4.728e-114 5.43711e-114 5.80805e-114 5.72028e-114 5.2841e-114 4.83313e-114 4.74408e-114 5.08849e-114 5.51505e-114 5.58906e-114 5.25599e-114 4.87159e-114 4.75458e-114 4.84528e-114 4.87274e-114 4.7042e-114 4.3966e-114 4.05898e-114 3.85743e-114 3.91986e-114 4.21256e-114 4.69381e-114 5.41659e-114 6.19804e-114 6.58165e-114 6.31308e-114 5.61219e-114 5.0264e-114 5.03084e-114 5.62829e-114 6.35974e-114 6.79853e-114 6.98729e-114 7.27796e-114 7.854e-114 8.52314e-114 8.97259e-114 9.05749e-114 8.77706e-114 8.16257e-114 7.27511e-114 6.14318e-114 4.72895e-114 3.16985e-114 1.80343e-114 8.67457e-115 3.55589e-115 1.25761e-115 3.88733e-116 1.06289e-116 2.59837e-117 5.73268e-118 1.15075e-118 2.11663e-119 3.5894e-120 5.64234e-121 8.26081e-122 1.13121e-122 1.45431e-123 1.76124e-124 2.01533e-125 2.18487e-126 2.24976e-127 2.20525e-128 2.06201e-129 1.84273e-130 1.57661e-131 1.29355e-132 1.01926e-133 7.72392e-135 5.63636e-136 3.96544e-137 2.69282e-138 1.76687e-139 1.12128e-140 6.88872e-142 4.10075e-143 2.36726e-144 1.32626e-145 7.21662e-147 3.8165e-148 1.96297e-149 9.82551e-151 4.78907e-152 2.27432e-153 1.05292e-154 4.75452e-156 2.09511e-157 9.01366e-159 3.78782e-160 1.55547e-161 6.24457e-163 2.4518e-164 9.41845e-166 3.54117e-167 1.30359e-168 4.69446e-170 0 
0 5.65652e-241 3.17708e-239 1.76165e-237 9.64531e-236 5.214e-234 2.78254e-232 1.46582e-230 7.6216e-229 3.91099e-227 1.98041e-225 9.89468e-224 4.87726e-222 2.37151e-220 1.13736e-218 5.37944e-217 2.50893e-215 1.1537e-213 5.22991e-212 2.33685e-210 1.02906e-208 4.46542e-207 1.9091e-205 8.04033e-204 3.33526e-202 1.36246e-200 5.48009e-199 2.16993e-197 8.45705e-196 3.24363e-194 1.22406e-192 4.5441e-191 1.65914e-189 5.95689e-188 2.10265e-186 7.29509e-185 2.48723e-183 8.33146e-182 2.74123e-180 8.85693e-179 2.80946e-177 8.7469e-176 2.67213e-174 8.0078e-173 2.3534e-171 6.78072e-170 1.91478e-168 5.29766e-167 1.43559e-165 3.80893e-164 9.89121e-163 2.51308e-161 6.24463e-160 1.51696e-158 3.601e-157 8.34961e-156 1.89018e-154 4.17567e-153 8.99742e-152 1.88995e-150 3.868e-149 7.7086e-148 1.49505e-146 2.82e-145 5.16972e-144 9.2046e-143 1.59052e-141 2.66519e-140 4.32726e-139 6.80159e-138 1.03399e-136 1.51878e-135 2.15324e-134 2.94318e-133 3.87385e-132 4.90353e-131 5.96089e-130 6.94863e-129 7.7548e-128 8.27113e-127 8.41504e-126 8.14975e-125 7.49626e-124 6.53245e-123 5.37835e-122 4.17104e-121 3.03666e-120 2.06761e-119 1.31106e-118 7.70509e-118 4.17425e-117 2.07171e-116 9.35271e-116 3.80923e-115 1.38647e-114 4.46084e-114 1.25307e-113 3.03176e-113 6.23273e-113 1.07742e-112 1.56487e-112 1.9451e-112 2.15409e-112 2.22503e-112 2.23636e-112 2.30343e-112 2.52489e-112 2.88588e-112 3.22307e-112 3.37301e-112 3.3388e-112 3.27475e-112 3.3202e-112 3.44985e-112 3.52647e-112 3.47901e-112 3.3601e-112 3.23248e-112 3.06209e-112 2.82381e-112 2.613e-112 2.57078e-112 2.72019e-112 2.93618e-112 3.05587e-112 2.9855e-112 2.75449e-112 2.45541e-112 2.17832e-112 2.01504e-112 2.01113e-112 2.11968e-112 2.26982e-112 2.43023e-112 2.53392e-112 2.48259e-112 2.26555e-112 1.97605e-112 1.74102e-112 1.67514e-112 1.8142e-112 2.08849e-112 2.37132e-112 2.58008e-112 2.75062e-112 2.94336e-112 3.14355e-112 3.2837e-112 3.30737e-112 3.21308e-112 3.02775e-112 2.74894e-112 2.38375e-112 1.99584e-112 1.69385e-112 1.54282e-112 1.55229e-112 1.72897e-112 2.03573e-112 2.34079e-112 2.50056e-112 2.46305e-112 2.2757e-112 2.08195e-112 2.04356e-112 2.19127e-112 2.37437e-112 2.40631e-112 2.26354e-112 2.09852e-112 2.04798e-112 2.08658e-112 2.09821e-112 2.02569e-112 1.89329e-112 1.74808e-112 1.66152e-112 1.6885e-112 1.81469e-112 2.02224e-112 2.33333e-112 2.66912e-112 2.8338e-112 2.71829e-112 2.4171e-112 2.16542e-112 2.16726e-112 2.42383e-112 2.7382e-112 2.92728e-112 3.00918e-112 3.13477e-112 3.38278e-112 3.67078e-112 3.86443e-112 3.90121e-112 3.78059e-112 3.51602e-112 3.13374e-112 2.64598e-112 2.03692e-112 1.36583e-112 7.7761e-113 3.74408e-113 1.53666e-113 5.44225e-114 1.68476e-114 4.61387e-115 1.1298e-115 2.49689e-116 5.02096e-117 9.25178e-118 1.57177e-118 2.47528e-119 3.63073e-120 4.98116e-121 6.41598e-122 7.7849e-123 8.9251e-124 9.69461e-125 1.00019e-125 9.82318e-127 9.20315e-128 8.24063e-129 7.06451e-130 5.80769e-131 4.58535e-132 3.48171e-133 2.54581e-134 1.79471e-135 1.2212e-136 8.02908e-138 5.10574e-139 3.14319e-140 1.87493e-141 1.08458e-142 6.0889e-144 3.32002e-145 1.75943e-146 9.06827e-148 4.54853e-149 2.22165e-150 1.05727e-151 4.90503e-153 2.21958e-154 9.8014e-156 4.22575e-157 1.77957e-158 7.32341e-160 2.94633e-161 1.1593e-162 4.46294e-164 1.6816e-165 6.20377e-167 2.23892e-168 0 