# vtk DataFile Version 3.0
Gray-Scott Simulation Output
ASCII
DATASET STRUCTURED_POINTS
DIMENSIONS 256 256 1
SPACING 1.0 1.0 1.0
ORIGIN 0 0 0
POINT_DATA 65536
SCALARS u double
LOOKUP_TABLE default
0 0 0 0 0 0 0 0 0 0 0 0 0 0 0 0 0 0 0 0 0 0 0 0 0 0 0 0 0 0 0 0 0 0 0 0 0 0 0 0 0 0 0 0 0 0 0 0 0 0 0 0 0 0 0 0 0 0 0 0 0 0 0 0 0 0 0 0 0 0 0 0 0 0 0 0 0 0 0 0 0 0 0 0 0 0 0 0 0 0 0 0 0 0 0 0 0 0 0 0 0 0 0 0 0 0 0 0 0 0 0 0 0 0 0 0 0 0 0 0 0 0 0 0 0 0 0 0 0 0 0 0 0 0 0 0 0 0 0 0 0 0 0 0 0 0 0 0 0 0 0 0 0 0 0 0 0 0 0 0 0 0 0 0 0 0 0 0 0 0 0 0 0 0 0 0 0 0 0 0 0 0 0 0 0 0 0 0 0 0 0 0 0 0 0 0 0 0 0 0 0 0 0 0 0 0 0 0 0 0 0 0 0 0 0 0 0 0 0 0 0 0 0 0 0 0 0 0 0 0 0 0 0 0 0 0 0 0 0 0 0 0 0 0 0 0 0 0 0 0 0 0 0 0 0 0 
0 6.44859e-77 2.27429e-76 7.332e-76 2.3276e-75 7.32397e-75 2.2855e-74 7.07318e-74 2.17082e-73 6.60669e-73 1.99375e-72 5.96567e-72 1.7698e-71 5.2052e-71 1.51766e-70 4.38643e-70 1.25666e-69 3.56835e-69 1.00423e-68 2.80083e-68 7.74105e-68 2.12005e-67 5.75299e-67 1.54673e-66 4.11984e-66 1.08708e-65 2.84134e-65 7.35595e-65 1.88615e-64 4.78967e-64 1.20446e-63 2.99921e-63 7.39461e-63 1.80503e-62 4.36195e-62 1.04345e-61 2.47071e-61 5.79027e-61 1.34297e-60 3.08239e-60 7.0005e-60 1.57309e-59 3.49725e-59 7.69147e-59 1.67327e-58 3.60047e-58 7.66214e-58 1.61251e-57 3.35564e-57 6.90449e-57 1.40454e-56 2.82449e-56 5.61453e-56 1.1031e-55 2.1419e-55 4.10993e-55 7.7925e-55 1.45978e-54 2.70163e-54 4.93917e-54 8.9193e-54 1.59081e-53 2.80206e-53 4.87382e-53 8.37061e-53 1.4194e-52 2.37614e-52 3.92668e-52 6.40519e-52 1.03123e-51 1.63859e-51 2.56943e-51 3.97588e-51 6.0706e-51 9.14547e-51 1.35936e-50 1.99343e-50 2.88395e-50 4.11606e-50 5.7953e-50 8.04943e-50 1.10294e-49 1.49086e-49 1.9881e-49 2.61558e-49 3.39513e-49 4.34843e-49 5.49588e-49 6.85523e-49 8.44005e-49 1.02583e-48 1.23112e-48 1.45918e-48 1.70846e-48 1.97658e-48 2.26031e-48 2.55574e-48 2.85838e-48 3.16343e-48 3.46596e-48 3.76113e-48 4.04447e-48 4.31201e-48 4.56045e-48 4.78727e-48 4.99073e-48 5.16986e-48 5.32442e-48 5.45479e-48 5.56186e-48 5.6469e-48 5.71147e-48 5.75727e-48 5.78609e-48 5.79975e-48 5.79999e-48 5.78854e-48 5.767e-48 5.73692e-48 5.69975e-48 5.65686e-48 5.60957e-48 5.55913e-48 5.50675e-48 5.45359e-48 5.40079e-48 5.34942e-48 5.30052e-48 5.25506e-48 5.21397e-48 5.17803e-48 5.14795e-48 5.12425e-48 5.10729e-48 5.09721e-48 5.0939e-48 5.09701e-48 5.10588e-48 5.11963e-48 5.13709e-48 5.15692e-48 5.17761e-48 5.19761e-48 5.21538e-48 5.22952e-48 5.23886e-48 5.2425e-48 5.23994e-48 5.23107e-48 5.21619e-48 5.19595e-48 5.17134e-48 5.14355e-48 5.11388e-48 5.08362e-48 5.05398e-48 5.02594e-48 5.00026e-48 4.97737e-48 4.95743e-48 4.94031e-48 4.9257e-48 4.91312e-48 4.90206e-48 4.892e-48 4.88256e-48 4.87349e-48 4.86476e-48 4.85654e-48 4.84923e-48 4.84343e-48 4.83988e-48 4.83942e-48 4.84293e-48 4.85129e-48 4.86526e-48 4.88551e-48 4.91247e-48 4.94639e-48 4.98723e-48 5.03465e-48 5.088e-48 5.14627e-48 5.20808e-48 5.27164e-48 5.33474e-48 5.39474e-48 5.4486e-48 5.49289e-48 5.52391e-48 5.53777e-48 5.53053e-48 5.49844e-48 5.4381e-48 5.34673e-48 5.22235e-48 5.06402e-48 4.87195e-48 4.64761e-48 4.39372e-48 4.11421e-48 3.81402e-48 3.49888e-48 3.17505e-48 2.84898e-48 2.52698e-48 2.21493e-48 1.918e-48 1.64045e-48 1.38554e-48 1.1554e-48 9.5112e-49 7.72807e-49 6.19708e-49 4.90391e-49 3.82914e-49 2.95009e-49 2.24246e-49 1.68171e-49 1.24425e-49 9.08204e-50 6.54006e-50 4.64627e-50 3.25655e-50 2.25193e-50 1.5364e-50 1.03426e-50 6.86976e-51 4.50264e-51 2.91226e-51 1.85889e-51 1.17103e-51 7.28116e-52 4.46871e-52 2.70735e-52 1.61927e-52 9.5619e-53 5.57508e-53 3.20978e-53 1.82497e-53 1.02477e-53 5.6836e-54 3.11378e-54 1.68522e-54 9.01088e-55 4.76056e-55 2.48524e-55 1.28213e-55 6.53715e-56 3.29419e-56 1.64039e-56 8.06386e-57 3.89384e-57 1.80348e-57 7.04187e-58 0 
0 2.27156e-76 8.01277e-76 2.58376e-75 8.20416e-75 2.5821e-74 8.05952e-74 2.49486e-73 7.65882e-73 2.33148e-72 7.03767e-72 2.10635e-71 6.25045e-71 1.83884e-70 5.36295e-70 1.55047e-69 4.44319e-69 1.26204e-68 3.55279e-68 9.91191e-68 2.74036e-67 7.50744e-67 2.03789e-66 5.48084e-66 1.46036e-65 3.85468e-65 1.00787e-64 2.61021e-64 6.69531e-64 1.70082e-63 4.27868e-63 1.06583e-62 2.62884e-62 6.41953e-62 1.55193e-61 3.71397e-61 8.79766e-61 2.06264e-60 4.78599e-60 1.09895e-59 2.49693e-59 5.61331e-59 1.24848e-58 2.74699e-58 5.97871e-58 1.28705e-57 2.7402e-57 5.76942e-57 1.20117e-56 2.47264e-56 5.03227e-56 1.01245e-55 2.01347e-55 3.95774e-55 7.6884e-55 1.47595e-54 2.79971e-54 5.24714e-54 9.71537e-54 1.77698e-53 3.21036e-53 5.72839e-53 1.00944e-52 1.75654e-52 3.01806e-52 5.11978e-52 8.57417e-52 1.41747e-51 2.31304e-51 3.72532e-51 5.92141e-51 9.28828e-51 1.43769e-50 2.19578e-50 3.30888e-50 4.91946e-50 7.21573e-50 1.04412e-49 1.49046e-49 2.09883e-49 2.91551e-49 3.99518e-49 5.40063e-49 7.20196e-49 9.47487e-49 1.2298e-48 1.57496e-48 1.9903e-48 2.48214e-48 3.05532e-48 3.7126e-48 4.45422e-48 5.27755e-48 6.17682e-48 7.14318e-48 8.16482e-48 9.2274e-48 1.03146e-47 1.14091e-47 1.24928e-47 1.35485e-47 1.45601e-47 1.55135e-47 1.63969e-47 1.72016e-47 1.79215e-47 1.85537e-47 1.90974e-47 1.95544e-47 1.99282e-47 2.02235e-47 2.04462e-47 2.06026e-47 2.06991e-47 2.07422e-47 2.07383e-47 2.06934e-47 2.06133e-47 2.05034e-47 2.03689e-47 2.02144e-47 2.00447e-47 1.98641e-47 1.96769e-47 1.94871e-47 1.92988e-47 1.91157e-47 1.89414e-47 1.87795e-47 1.86332e-47 1.85053e-47 1.83983e-47 1.8314e-47 1.82538e-47 1.8218e-47 1.82064e-47 1.82177e-47 1.82496e-47 1.82988e-47 1.83613e-47 1.84322e-47 1.85062e-47 1.85777e-47 1.86413e-47 1.8692e-47 1.87255e-47 1.87387e-47 1.87298e-47 1.86984e-47 1.86455e-47 1.85736e-47 1.8486e-47 1.83871e-47 1.82815e-47 1.81739e-47 1.80685e-47 1.79688e-47 1.78775e-47 1.77962e-47 1.77254e-47 1.76647e-47 1.76129e-47 1.75682e-47 1.7529e-47 1.74932e-47 1.74596e-47 1.74273e-47 1.73962e-47 1.73668e-47 1.73406e-47 1.73198e-47 1.7307e-47 1.73052e-47 1.73177e-47 1.73474e-47 1.73973e-47 1.74696e-47 1.75661e-47 1.76874e-47 1.78337e-47 1.80037e-47 1.81953e-47 1.84047e-47 1.86273e-47 1.88567e-47 1.9085e-47 1.93028e-47 1.94995e-47 1.96627e-47 1.97791e-47 1.98348e-47 1.98155e-47 1.97078e-47 1.94992e-47 1.91794e-47 1.87413e-47 1.81812e-47 1.74994e-47 1.67011e-47 1.57958e-47 1.47975e-47 1.37237e-47 1.2595e-47 1.14338e-47 1.02635e-47 9.10671e-48 7.98478e-48 6.91646e-48 5.91726e-48 4.99901e-48 4.16959e-48 3.43306e-48 2.78989e-48 2.23749e-48 1.77077e-48 1.38278e-48 1.06539e-48 8.09849e-49 6.07333e-49 4.4933e-49 3.27956e-49 2.36143e-49 1.67744e-49 1.17555e-49 8.12773e-50 5.54423e-50 3.73144e-50 2.47796e-50 1.62374e-50 1.04995e-50 6.69997e-51 4.2195e-51 2.62278e-51 1.60919e-51 9.74598e-52 5.82712e-52 3.43974e-52 2.00482e-52 1.15383e-52 6.55777e-53 3.68095e-53 2.04075e-53 1.11759e-53 6.04613e-54 3.23157e-54 1.70659e-54 8.90554e-55 4.59248e-55 2.34058e-55 1.17897e-55 5.86846e-56 2.88366e-56 1.3919e-56 6.44446e-57 2.51564e-57 0 
0 7.31283e-76 2.5801e-75 8.32176e-75 2.6431e-74 8.3209e-74 2.59794e-73 8.04433e-73 2.4702e-72 7.52196e-72 2.27123e-71 6.79985e-71 2.01845e-70 5.94008e-70 1.73299e-69 5.01189e-69 1.43676e-68 4.0824e-68 1.14966e-67 3.2086e-67 8.87419e-67 2.43208e-66 6.60446e-66 1.77695e-65 4.73655e-65 1.25075e-64 3.27164e-64 8.4766e-64 2.17523e-63 5.5282e-63 1.39132e-62 3.4674e-62 8.55617e-62 2.09036e-61 5.05588e-61 1.21052e-60 2.86887e-60 6.72947e-60 1.56224e-59 3.58899e-59 8.15872e-59 1.8351e-58 4.08366e-58 8.98986e-58 1.95765e-57 4.21653e-57 8.98208e-57 1.89218e-56 3.94159e-56 8.11833e-56 1.65313e-55 3.32779e-55 6.62171e-55 1.3023e-54 2.53128e-54 4.86199e-54 9.22774e-54 1.73038e-53 3.20563e-53 5.86639e-53 1.06041e-52 1.89313e-52 3.33774e-52 5.81101e-52 9.98937e-52 1.6954e-51 2.84067e-51 4.69833e-51 7.67018e-51 1.23587e-50 1.96523e-50 3.08385e-50 4.77511e-50 7.29554e-50 1.09974e-49 1.63551e-49 2.39956e-49 3.47302e-49 4.95867e-49 6.98386e-49 9.70272e-49 1.32971e-48 1.79759e-48 2.39722e-48 3.1537e-48 4.09312e-48 5.24132e-48 6.62246e-48 8.25732e-48 1.01615e-47 1.23438e-47 1.48043e-47 1.75337e-47 2.05121e-47 2.37093e-47 2.70854e-47 3.05923e-47 3.41752e-47 3.7776e-47 4.13354e-47 4.47958e-47 4.81045e-47 5.12152e-47 5.40904e-47 5.67018e-47 5.90309e-47 6.10688e-47 6.28148e-47 6.42759e-47 6.54646e-47 6.63977e-47 6.7095e-47 6.75777e-47 6.78676e-47 6.79863e-47 6.79545e-47 6.77919e-47 6.75172e-47 6.71479e-47 6.67002e-47 6.61897e-47 6.56311e-47 6.50384e-47 6.44251e-47 6.38043e-47 6.31889e-47 6.2591e-47 6.20224e-47 6.14944e-47 6.10174e-47 6.06005e-47 6.02518e-47 5.99774e-47 5.97815e-47 5.96656e-47 5.96286e-47 5.96662e-47 5.9771e-47 5.99326e-47 6.01375e-47 6.037e-47 6.06126e-47 6.08472e-47 6.10559e-47 6.12223e-47 6.13326e-47 6.13766e-47 6.13483e-47 6.12465e-47 6.10745e-47 6.08403e-47 6.05551e-47 6.02329e-47 5.9889e-47 5.95384e-47 5.9195e-47 5.88706e-47 5.85737e-47 5.83093e-47 5.80793e-47 5.7882e-47 5.77138e-47 5.75689e-47 5.74413e-47 5.73252e-47 5.72158e-47 5.71103e-47 5.70084e-47 5.69122e-47 5.68263e-47 5.67579e-47 5.67156e-47 5.67093e-47 5.67496e-47 5.68467e-47 5.70097e-47 5.72465e-47 5.75625e-47 5.79607e-47 5.84411e-47 5.90002e-47 5.96308e-47 6.03217e-47 6.10573e-47 6.18171e-47 6.25759e-47 6.33033e-47 6.39639e-47 6.45178e-47 6.49212e-47 6.51281e-47 6.50916e-47 6.47664e-47 6.41112e-47 6.30916e-47 6.16824e-47 5.98705e-47 5.76566e-47 5.50562e-47 5.21e-47 4.88329e-47 4.53126e-47 4.16066e-47 3.77889e-47 3.39363e-47 3.01243e-47 2.64235e-47 2.28966e-47 1.95953e-47 1.65594e-47 1.38156e-47 1.13778e-47 9.24802e-48 7.41809e-48 5.87146e-48 4.58538e-48 3.53308e-48 2.68571e-48 2.01408e-48 1.49003e-48 1.08746e-48 7.82935e-49 5.56084e-49 3.8964e-49 2.69344e-49 1.8369e-49 1.236e-49 8.20578e-50 5.37549e-50 3.47485e-50 2.21666e-50 1.39553e-50 8.67127e-51 5.31818e-51 3.21968e-51 1.92427e-51 1.13542e-51 6.61484e-52 3.80534e-52 2.16179e-52 1.21288e-52 6.72121e-53 3.67906e-53 1.98941e-53 1.0628e-53 5.60992e-54 2.92602e-54 1.50818e-54 7.68273e-55 3.86797e-55 1.92437e-55 9.45146e-56 4.55995e-56 2.11035e-56 8.23533e-57 0 
0 2.31811e-75 8.18054e-75 2.63923e-74 8.38487e-74 2.64044e-73 8.24637e-73 2.5542e-72 7.84567e-72 2.38982e-71 7.2183e-71 2.16179e-70 6.41916e-70 1.88973e-69 5.51513e-69 1.59557e-68 4.57569e-68 1.30062e-67 3.66409e-67 1.02301e-66 2.83051e-66 7.76048e-66 2.10826e-65 5.6747e-65 1.51326e-64 3.99769e-64 1.04615e-63 2.71172e-63 6.96186e-63 1.77013e-62 4.4571e-62 1.11131e-61 2.7436e-61 6.7062e-61 1.62281e-60 3.88743e-60 9.21774e-60 2.16331e-59 5.02474e-59 1.15497e-58 2.62696e-58 5.91191e-58 1.3163e-57 2.89935e-57 6.3172e-57 1.36141e-56 2.90174e-56 6.11635e-56 1.27483e-55 2.62723e-55 5.35293e-55 1.07818e-54 2.14664e-54 4.22429e-54 8.21553e-54 1.57893e-53 2.99844e-53 5.6259e-53 1.04283e-52 1.90949e-52 3.45353e-52 6.16895e-52 1.08823e-51 1.89563e-51 3.26039e-51 5.53641e-51 9.28099e-51 1.53578e-50 2.50839e-50 4.04353e-50 6.43263e-50 1.00983e-49 1.56426e-49 2.3908e-49 3.60514e-49 5.3632e-49 7.87093e-49 1.13949e-48 1.62729e-48 2.29231e-48 3.18519e-48 4.36562e-48 5.90214e-48 7.8711e-48 1.03547e-47 1.34383e-47 1.7206e-47 2.17364e-47 2.70965e-47 3.33363e-47 4.04825e-47 4.8534e-47 5.74574e-47 6.71854e-47 7.76165e-47 8.86175e-47 1.00028e-46 1.11669e-46 1.23347e-46 1.34868e-46 1.46045e-46 1.56707e-46 1.66705e-46 1.7592e-46 1.84264e-46 1.91679e-46 1.98143e-46 2.03656e-46 2.08247e-46 2.11959e-46 2.14851e-46 2.16989e-46 2.18445e-46 2.1929e-46 2.19594e-46 2.19425e-46 2.18847e-46 2.17917e-46 2.16692e-46 2.15223e-46 2.13559e-46 2.11746e-46 2.09829e-46 2.07849e-46 2.05848e-46 2.03866e-46 2.01943e-46 2.00115e-46 1.98418e-46 1.96886e-46 1.95547e-46 1.94428e-46 1.93548e-46 1.9292e-46 1.9255e-46 1.92433e-46 1.92557e-46 1.92897e-46 1.9342e-46 1.94082e-46 1.94833e-46 1.95617e-46 1.96375e-46 1.9705e-46 1.97588e-46 1.97946e-46 1.98091e-46 1.98003e-46 1.97677e-46 1.97127e-46 1.96375e-46 1.9546e-46 1.94426e-46 1.93322e-46 1.92197e-46 1.91096e-46 1.90056e-46 1.89104e-46 1.88257e-46 1.87521e-46 1.8689e-46 1.86352e-46 1.85889e-46 1.85481e-46 1.85108e-46 1.84757e-46 1.84418e-46 1.8409e-46 1.83779e-46 1.83502e-46 1.8328e-46 1.83142e-46 1.8312e-46 1.83249e-46 1.83561e-46 1.84086e-46 1.8485e-46 1.85871e-46 1.87159e-46 1.88714e-46 1.90526e-46 1.92573e-46 1.9482e-46 1.97217e-46 1.997e-46 2.02187e-46 2.04583e-46 2.06773e-46 2.08628e-46 2.10007e-46 2.10761e-46 2.10736e-46 2.09783e-46 2.07766e-46 2.04571e-46 2.00113e-46 1.94346e-46 1.87267e-46 1.78925e-46 1.69415e-46 1.58881e-46 1.47508e-46 1.35516e-46 1.23144e-46 1.10643e-46 9.8259e-47 8.62242e-47 7.47442e-47 6.39901e-47 5.40934e-47 4.5143e-47 3.71864e-47 3.02318e-47 2.42538e-47 1.91995e-47 1.49955e-47 1.15548e-47 8.78372e-48 6.58703e-48 4.87291e-48 3.55607e-48 2.55997e-48 1.81797e-48 1.27361e-48 8.80221e-49 6.00166e-49 4.03731e-49 2.67962e-49 1.75485e-49 1.13401e-49 7.23157e-50 4.55108e-50 2.82678e-50 1.73301e-50 1.04875e-50 6.26523e-51 3.69518e-51 2.15181e-51 1.2373e-51 7.02574e-52 3.93993e-52 2.18225e-52 1.19393e-52 6.45282e-53 3.44554e-53 1.81777e-53 9.47628e-54 4.8819e-54 2.48558e-54 1.25075e-54 6.21946e-55 3.05309e-55 1.47227e-55 6.81064e-56 2.65687e-56 0 
0 7.28328e-75 2.57084e-74 8.29636e-74 2.63652e-73 8.30502e-73 2.59452e-72 8.03863e-72 2.46999e-71 7.52609e-71 2.27396e-70 6.81252e-70 2.02358e-69 5.95931e-69 1.73983e-68 5.03531e-68 1.44454e-67 4.10758e-67 1.15764e-66 3.2334e-66 8.9499e-66 2.45483e-65 6.67174e-65 1.79657e-64 4.79296e-64 1.26675e-63 3.31645e-63 8.60048e-63 2.20905e-62 5.61942e-62 1.41563e-61 3.53138e-61 8.72262e-61 2.13315e-60 5.16459e-60 1.23782e-59 2.93662e-59 6.89565e-59 1.60252e-58 3.68552e-58 8.38732e-58 1.8886e-57 4.20741e-57 9.27274e-57 2.02154e-56 4.35914e-56 9.29662e-56 1.96072e-55 4.08914e-55 8.43214e-55 1.71906e-54 3.4646e-54 6.90211e-54 1.35906e-53 2.64473e-53 5.08592e-53 9.66412e-53 1.81434e-52 3.36509e-52 6.16532e-52 1.11572e-51 1.99412e-51 3.51972e-51 6.13455e-51 1.05569e-50 1.79361e-50 3.00828e-50 4.9805e-50 8.13865e-50 1.31257e-49 2.08904e-49 3.28091e-49 5.0843e-49 7.77376e-49 1.17264e-48 1.74505e-48 2.56176e-48 3.70969e-48 5.29896e-48 7.46594e-48 1.03756e-47 1.42224e-47 1.92295e-47 2.56452e-47 3.37366e-47 4.37801e-47 5.60483e-47 7.07941e-47 8.82322e-47 1.0852e-46 1.3174e-46 1.57881e-46 1.86827e-46 2.1835e-46 2.52112e-46 2.87672e-46 3.24503e-46 3.62012e-46 3.99573e-46 4.36556e-46 4.72353e-46 5.06414e-46 5.38267e-46 5.67535e-46 5.93944e-46 6.17329e-46 6.37624e-46 6.54854e-46 6.69119e-46 6.80576e-46 6.89425e-46 6.95888e-46 7.002e-46 7.02596e-46 7.03304e-46 7.02539e-46 7.00502e-46 6.97381e-46 6.93349e-46 6.88568e-46 6.83187e-46 6.77352e-46 6.71199e-46 6.6486e-46 6.58464e-46 6.52137e-46 6.46001e-46 6.40174e-46 6.34768e-46 6.29887e-46 6.25626e-46 6.22065e-46 6.19267e-46 6.17273e-46 6.16101e-46 6.15738e-46 6.16142e-46 6.17236e-46 6.18912e-46 6.21035e-46 6.23441e-46 6.25952e-46 6.2838e-46 6.30543e-46 6.32272e-46 6.33424e-46 6.33894e-46 6.33621e-46 6.32592e-46 6.30843e-46 6.28455e-46 6.25543e-46 6.22253e-46 6.1874e-46 6.15161e-46 6.11658e-46 6.08351e-46 6.05328e-46 6.02639e-46 6.00303e-46 5.98302e-46 5.96597e-46 5.95129e-46 5.93834e-46 5.92653e-46 5.91536e-46 5.90455e-46 5.89406e-46 5.88412e-46 5.87522e-46 5.86809e-46 5.86364e-46 5.8629e-46 5.86697e-46 5.87691e-46 5.89369e-46 5.91813e-46 5.95083e-46 5.99213e-46 6.04207e-46 6.10033e-46 6.16624e-46 6.23872e-46 6.31621e-46 6.39669e-46 6.47762e-46 6.55591e-46 6.62795e-46 6.68962e-46 6.73638e-46 6.7634e-46 6.76573e-46 6.73853e-46 6.67733e-46 6.57836e-46 6.43876e-46 6.25693e-46 6.03269e-46 5.76743e-46 5.46417e-46 5.12744e-46 4.76317e-46 4.37836e-46 3.98074e-46 3.57842e-46 3.1794e-46 2.79122e-46 2.42057e-46 2.07306e-46 1.75302e-46 1.46339e-46 1.20576e-46 9.80471e-47 7.86731e-47 6.22867e-47 4.86528e-47 3.74918e-47 2.8501e-47 2.1373e-47 1.58104e-47 1.15368e-47 8.30425e-48 5.89642e-48 4.13008e-48 2.85381e-48 1.94537e-48 1.3083e-48 8.68089e-49 5.68324e-49 3.67137e-49 2.34039e-49 1.47233e-49 9.14141e-50 5.60199e-50 3.38865e-50 2.02349e-50 1.1929e-50 6.94333e-51 3.99055e-51 2.26483e-51 1.26945e-51 7.02771e-52 3.84296e-52 2.07593e-52 1.10788e-52 5.84181e-53 3.04379e-53 1.56724e-53 7.97522e-54 4.01101e-54 1.99345e-54 9.78055e-55 4.71399e-55 2.17967e-55 8.50012e-56 0 
0 2.2694e-74 8.01235e-74 2.58639e-73 8.22177e-73 2.59063e-72 8.09572e-72 2.5091e-71 7.71205e-71 2.35065e-70 7.10472e-70 2.12923e-69 6.32686e-69 1.86388e-68 5.44363e-68 1.57605e-67 4.52314e-67 1.28667e-66 3.62766e-66 1.01365e-65 2.80691e-65 7.70219e-65 2.09421e-64 5.64175e-64 1.5058e-63 3.98155e-63 1.04289e-62 2.70576e-62 6.95314e-62 1.76961e-61 4.46017e-61 1.11318e-60 2.75099e-60 6.73116e-60 1.63055e-59 3.91008e-59 9.28137e-59 2.18061e-58 5.07048e-58 1.16678e-57 2.65681e-57 5.98588e-57 1.3343e-56 2.94241e-56 6.41854e-56 1.38489e-55 2.95529e-55 6.2367e-55 1.30148e-54 2.68541e-54 5.47812e-54 1.10474e-53 2.20222e-53 4.33897e-53 8.44888e-53 1.62576e-52 3.09113e-52 5.80685e-52 1.07767e-51 1.97564e-51 3.57739e-51 6.39768e-51 1.12988e-50 1.97041e-50 3.39277e-50 5.76748e-50 9.67859e-50 1.60322e-49 2.62116e-49 4.22936e-49 6.73445e-49 1.05814e-48 1.64045e-48 2.5092e-48 3.78643e-48 5.63664e-48 8.27724e-48 1.19896e-47 1.71301e-47 2.41403e-47 3.35538e-47 4.59996e-47 6.21988e-47 8.29532e-47 1.09124e-46 1.41602e-46 1.81261e-46 2.28909e-46 2.85231e-46 3.50718e-46 4.25617e-46 5.09869e-46 6.03074e-46 7.0447e-46 8.12936e-46 9.27022e-46 1.045e-45 1.16495e-45 1.28483e-45 1.40261e-45 1.51634e-45 1.62427e-45 1.72491e-45 1.81707e-45 1.89992e-45 1.97299e-45 2.03611e-45 2.08941e-45 2.13327e-45 2.16822e-45 2.19495e-45 2.21419e-45 2.22671e-45 2.23329e-45 2.23464e-45 2.23146e-45 2.22438e-45 2.21398e-45 2.2008e-45 2.18535e-45 2.16808e-45 2.14944e-45 2.12985e-45 2.10971e-45 2.08943e-45 2.06939e-45 2.04997e-45 2.03154e-45 2.01446e-45 1.99904e-45 1.98558e-45 1.97434e-45 1.96552e-45 1.95924e-45 1.95556e-45 1.95444e-45 1.95574e-45 1.95923e-45 1.96457e-45 1.97132e-45 1.97896e-45 1.98694e-45 1.99466e-45 2.00154e-45 2.00704e-45 2.01072e-45 2.01224e-45 2.01141e-45 2.00818e-45 2.00267e-45 1.99513e-45 1.98595e-45 1.97556e-45 1.96447e-45 1.95318e-45 1.94213e-45 1.9317e-45 1.92217e-45 1.9137e-45 1.90635e-45 1.90006e-45 1.8947e-45 1.89008e-45 1.88601e-45 1.88229e-45 1.87876e-45 1.87535e-45 1.87202e-45 1.86887e-45 1.86604e-45 1.86376e-45 1.86234e-45 1.86209e-45 1.86337e-45 1.86651e-45 1.87183e-45 1.87959e-45 1.88998e-45 1.90313e-45 1.91903e-45 1.93762e-45 1.95869e-45 1.98189e-45 2.00675e-45 2.03265e-45 2.05879e-45 2.08419e-45 2.10772e-45 2.12807e-45 2.14379e-45 2.15335e-45 2.15514e-45 2.14761e-45 2.12931e-45 2.09898e-45 2.0557e-45 1.99889e-45 1.92848e-45 1.84485e-45 1.74894e-45 1.64218e-45 1.52642e-45 1.40392e-45 1.27713e-45 1.14865e-45 1.02107e-45 8.9681e-46 7.78047e-46 6.66601e-46 5.63882e-46 4.70861e-46 3.88068e-46 3.15628e-46 2.53306e-46 2.00574e-46 1.56686e-46 1.20749e-46 9.17948e-47 6.88361e-47 5.09179e-47 3.71516e-47 2.67386e-47 1.89828e-47 1.32938e-47 9.18378e-48 6.25881e-48 4.20804e-48 2.79131e-48 1.82683e-48 1.17973e-48 7.51764e-49 4.7275e-49 2.93402e-49 1.79724e-49 1.08668e-49 6.48602e-50 3.82187e-50 2.22347e-50 1.27727e-50 7.24549e-51 4.05907e-51 2.24593e-51 1.2275e-51 6.62728e-52 3.53494e-52 1.86295e-52 9.70138e-53 4.99248e-53 2.53913e-53 1.27631e-53 6.33974e-54 3.10881e-54 1.49759e-54 6.92132e-55 2.69818e-55 0 
0 7.01271e-74 2.4765e-73 7.99646e-73 2.54272e-72 8.01443e-72 2.5053e-71 7.76716e-71 2.38813e-70 7.28152e-70 2.20156e-69 6.60023e-69 1.96192e-68 5.78191e-68 1.68929e-67 4.89276e-67 1.40473e-66 3.99754e-66 1.12753e-65 3.1519e-65 8.73164e-65 2.39701e-64 6.52028e-64 1.75734e-63 4.69255e-63 1.24135e-62 3.25301e-62 8.44401e-62 2.17097e-61 5.528e-61 1.39399e-60 3.48096e-60 8.60699e-60 2.10709e-59 5.10694e-59 1.22532e-58 2.91018e-58 6.84117e-58 1.59166e-57 3.66471e-57 8.34961e-57 1.88231e-56 4.19835e-56 9.26381e-56 2.02203e-55 4.3655e-55 9.32157e-55 1.96841e-54 4.11027e-54 8.48629e-54 1.73227e-53 3.4956e-53 6.97266e-53 1.37468e-52 2.67851e-52 5.15736e-52 9.81218e-52 1.84444e-51 3.42516e-51 6.28312e-51 1.13842e-50 2.03716e-50 3.59997e-50 6.28176e-50 1.08226e-49 1.84082e-49 3.09086e-49 5.12266e-49 8.37959e-49 1.35277e-48 2.15507e-48 3.38768e-48 5.25429e-48 8.04016e-48 1.21374e-47 1.80746e-47 2.65505e-47 3.84695e-47 5.4977e-47 7.74916e-47 1.07728e-46 1.47705e-46 1.99738e-46 2.66395e-46 3.50436e-46 4.54703e-46 5.81984e-46 7.34846e-46 9.15438e-46 1.12529e-45 1.36514e-45 1.6347e-45 1.93263e-45 2.25638e-45 2.60226e-45 2.96555e-45 3.34062e-45 3.72127e-45 4.10093e-45 4.47309e-45 4.83155e-45 5.17075e-45 5.48603e-45 5.77375e-45 6.03139e-45 6.25757e-45 6.45197e-45 6.61516e-45 6.74849e-45 6.85382e-45 6.93344e-45 6.98978e-45 7.02535e-45 7.04261e-45 7.0439e-45 7.03138e-45 7.00702e-45 6.97265e-45 6.92991e-45 6.88032e-45 6.82531e-45 6.7662e-45 6.70429e-45 6.64082e-45 6.57701e-45 6.51403e-45 6.45308e-45 6.39527e-45 6.3417e-45 6.29338e-45 6.25123e-45 6.21604e-45 6.18843e-45 6.16881e-45 6.15735e-45 6.15392e-45 6.15811e-45 6.16916e-45 6.18601e-45 6.20729e-45 6.2314e-45 6.25655e-45 6.28089e-45 6.3026e-45 6.31998e-45 6.33163e-45 6.3365e-45 6.33397e-45 6.32392e-45 6.30671e-45 6.28314e-45 6.25439e-45 6.22187e-45 6.18716e-45 6.1518e-45 6.11722e-45 6.08461e-45 6.05482e-45 6.02837e-45 6.00541e-45 5.98579e-45 5.96907e-45 5.95468e-45 5.94198e-45 5.93035e-45 5.91932e-45 5.9086e-45 5.89815e-45 5.88821e-45 5.87928e-45 5.87209e-45 5.86756e-45 5.86673e-45 5.87071e-45 5.88057e-45 5.8973e-45 5.92174e-45 5.95453e-45 5.99603e-45 6.04633e-45 6.10518e-45 6.17198e-45 6.24571e-45 6.3249e-45 6.40762e-45 6.4914e-45 6.57322e-45 6.64952e-45 6.71617e-45 6.76863e-45 6.80198e-45 6.81114e-45 6.79111e-45 6.7372e-45 6.64537e-45 6.5125e-45 6.3367e-45 6.11751e-45 5.85611e-45 5.5553e-45 5.21953e-45 4.85464e-45 4.4677e-45 4.06655e-45 3.65945e-45 3.25464e-45 2.85992e-45 2.48226e-45 2.12754e-45 1.80034e-45 1.50381e-45 1.23973e-45 1.00854e-45 8.09547e-46 6.41111e-46 5.00879e-46 3.86024e-46 2.93465e-46 2.20063e-46 1.62771e-46 1.18753e-46 8.54579e-47 6.06602e-47 4.24727e-47 2.9335e-47 1.99869e-47 1.34342e-47 8.90855e-48 5.82846e-48 3.76254e-48 2.39672e-48 1.50659e-48 9.34637e-49 5.72267e-49 3.45856e-49 2.06333e-49 1.21523e-49 7.06638e-50 4.05722e-50 2.30032e-50 1.28801e-50 7.1229e-51 3.89085e-51 2.09953e-51 1.11926e-51 5.89531e-52 3.06828e-52 1.57809e-52 8.02153e-53 4.02981e-53 2.00057e-53 9.80471e-54 4.72062e-54 2.18064e-54 8.49788e-55 0 
0 2.14897e-73 7.59085e-73 2.45175e-72 7.7985e-72 2.45879e-71 7.68862e-71 2.38448e-70 7.33391e-70 2.23692e-69 6.76568e-69 2.02907e-68 6.03363e-68 1.77882e-67 5.19915e-67 1.50644e-66 4.32677e-66 1.23181e-65 3.47584e-65 9.72049e-65 2.69401e-64 7.39889e-64 2.01353e-63 5.42935e-63 1.45046e-62 3.83883e-62 1.00647e-61 2.61383e-61 6.72359e-61 1.71292e-60 4.32173e-60 1.07976e-59 2.67123e-59 6.54305e-59 1.58672e-58 3.80921e-58 9.05213e-58 2.12918e-57 4.95663e-57 1.14192e-56 2.60329e-56 5.87235e-56 1.31059e-55 2.89366e-55 6.32002e-55 1.36534e-54 2.91724e-54 6.1642e-54 1.28799e-53 2.66099e-53 5.43532e-53 1.09753e-52 2.19068e-52 4.32185e-52 8.42647e-52 1.62355e-51 3.09093e-51 5.81396e-51 1.08037e-50 1.98311e-50 3.59544e-50 6.43796e-50 1.13839e-49 1.98766e-49 3.42652e-49 5.83162e-49 9.7973e-49 1.62467e-48 2.65906e-48 4.29493e-48 6.8456e-48 1.07662e-47 1.67059e-47 2.55743e-47 3.86222e-47 5.75361e-47 8.45453e-47 1.22535e-46 1.75162e-46 2.4695e-46 3.43369e-46 4.70855e-46 6.36781e-46 8.49325e-46 1.11725e-45 1.44958e-45 1.85513e-45 2.34198e-45 2.91686e-45 3.58447e-45 4.34691e-45 5.2031e-45 6.14842e-45 7.17448e-45 8.26927e-45 9.41742e-45 1.06008e-44 1.17995e-44 1.29926e-44 1.41593e-44 1.528e-44 1.63373e-44 1.73167e-44 1.8207e-44 1.90009e-44 1.96944e-44 2.02871e-44 2.07814e-44 2.1182e-44 2.14954e-44 2.1729e-44 2.1891e-44 2.19893e-44 2.20319e-44 2.20261e-44 2.19787e-44 2.18958e-44 2.1783e-44 2.16454e-44 2.14874e-44 2.13135e-44 2.11275e-44 2.09334e-44 2.07349e-44 2.05357e-44 2.03394e-44 2.01496e-44 1.99697e-44 1.98031e-44 1.96529e-44 1.95219e-44 1.94127e-44 1.9327e-44 1.92662e-44 1.92308e-44 1.92204e-44 1.92337e-44 1.92684e-44 1.93212e-44 1.93878e-44 1.94632e-44 1.95419e-44 1.9618e-44 1.96859e-44 1.97404e-44 1.9777e-44 1.97925e-44 1.97849e-44 1.97539e-44 1.97006e-44 1.96274e-44 1.95381e-44 1.94372e-44 1.93294e-44 1.92196e-44 1.91123e-44 1.90111e-44 1.89187e-44 1.88368e-44 1.87657e-44 1.8705e-44 1.86533e-44 1.86088e-44 1.85695e-44 1.85335e-44 1.84992e-44 1.84659e-44 1.84333e-44 1.84023e-44 1.83743e-44 1.83518e-44 1.83375e-44 1.83347e-44 1.8347e-44 1.83777e-44 1.84299e-44 1.85063e-44 1.86089e-44 1.8739e-44 1.88968e-44 1.90817e-44 1.92919e-44 1.95244e-44 1.97747e-44 2.0037e-44 2.03036e-44 2.05652e-44 2.08108e-44 2.10276e-44 2.12011e-44 2.13161e-44 2.13563e-44 2.13059e-44 2.11499e-44 2.08751e-44 2.04715e-44 1.99325e-44 1.92563e-44 1.84463e-44 1.75107e-44 1.64633e-44 1.53223e-44 1.41099e-44 1.28506e-44 1.15707e-44 1.02961e-44 9.05185e-45 7.86007e-45 6.7396e-45 5.70516e-45 4.76702e-45 3.93097e-45 3.19865e-45 2.56803e-45 2.03402e-45 1.58928e-45 1.22492e-45 9.31236e-46 6.98301e-46 5.16474e-46 3.76769e-46 2.71097e-46 1.924e-46 1.34687e-46 9.30039e-47 6.33503e-47 4.25686e-47 2.82193e-47 1.84563e-47 1.191e-47 7.58367e-48 4.76516e-48 2.95487e-48 1.80842e-48 1.09243e-48 6.51414e-49 3.83468e-49 2.22868e-49 1.27895e-49 7.24739e-50 4.0558e-50 2.24169e-50 1.22383e-50 6.60016e-51 3.51653e-51 1.85116e-51 9.629e-52 4.94958e-52 2.51444e-52 1.26246e-52 6.26375e-53 3.06808e-53 1.47635e-53 6.81647e-54 2.65537e-54 0 
0 6.53012e-73 2.30722e-72 7.45427e-72 2.37179e-71 7.48042e-71 2.33989e-70 7.25919e-70 2.23347e-69 6.81471e-69 2.06189e-68 6.18601e-68 1.84016e-67 5.42722e-67 1.58689e-66 4.59983e-66 1.3217e-65 3.76437e-65 1.06266e-64 2.97312e-64 8.24361e-64 2.26507e-63 6.167e-63 1.66367e-62 4.44665e-62 1.17744e-61 3.08857e-61 8.02519e-61 2.06539e-60 5.26463e-60 1.32898e-59 3.32218e-59 8.22334e-59 2.0154e-58 4.8902e-58 1.17466e-57 2.79308e-57 6.57361e-57 1.53123e-56 3.52982e-56 8.05209e-56 1.81748e-55 4.05881e-55 8.96721e-55 1.95978e-54 4.23654e-54 9.05794e-54 1.91523e-53 4.0045e-53 8.27882e-53 1.69216e-52 3.41923e-52 6.82942e-52 1.34824e-51 2.63051e-51 5.07172e-51 9.6621e-51 1.81864e-50 3.38172e-50 6.21156e-50 1.12692e-49 2.01917e-49 3.57269e-49 6.24194e-49 1.07672e-48 1.83359e-48 3.08232e-48 5.11432e-48 8.37517e-48 1.35349e-47 2.15843e-47 3.39626e-47 5.27246e-47 8.07496e-47 1.21998e-46 1.81811e-46 2.67252e-46 3.87461e-46 5.54019e-46 7.81258e-46 1.08649e-45 1.4901e-45 2.01539e-45 2.68821e-45 3.53621e-45 4.58778e-45 5.87061e-45 7.40995e-45 9.22664e-45 1.1335e-44 1.37411e-44 1.64406e-44 1.94179e-44 2.26458e-44 2.60851e-44 2.96865e-44 3.3392e-44 3.71378e-44 4.08577e-44 4.4486e-44 4.79613e-44 5.12296e-44 5.4246e-44 5.69769e-44 5.94005e-44 6.15064e-44 6.32949e-44 6.47754e-44 6.59645e-44 6.68838e-44 6.75582e-44 6.80136e-44 6.82762e-44 6.83709e-44 6.83208e-44 6.81468e-44 6.78679e-44 6.75008e-44 6.70607e-44 6.65613e-44 6.60153e-44 6.54346e-44 6.48308e-44 6.42149e-44 6.3598e-44 6.29911e-44 6.24047e-44 6.18495e-44 6.13356e-44 6.08725e-44 6.0469e-44 6.01324e-44 5.98688e-44 5.96819e-44 5.95735e-44 5.95423e-44 5.95844e-44 5.96925e-44 5.98564e-44 6.00631e-44 6.0297e-44 6.0541e-44 6.07773e-44 6.09882e-44 6.11575e-44 6.12716e-44 6.13203e-44 6.12979e-44 6.1203e-44 6.10391e-44 6.0814e-44 6.05391e-44 6.02281e-44 5.9896e-44 5.9558e-44 5.92276e-44 5.89163e-44 5.86324e-44 5.83806e-44 5.81624e-44 5.79761e-44 5.78176e-44 5.76811e-44 5.75605e-44 5.74498e-44 5.73444e-44 5.72414e-44 5.71407e-44 5.70445e-44 5.69578e-44 5.68876e-44 5.68429e-44 5.68341e-44 5.68717e-44 5.69665e-44 5.71282e-44 5.7365e-44 5.76836e-44 5.80878e-44 5.8579e-44 5.91555e-44 5.9812e-44 6.05395e-44 6.13249e-44 6.21502e-44 6.29924e-44 6.38229e-44 6.46077e-44 6.53071e-44 6.58767e-44 6.62681e-44 6.64309e-44 6.63147e-44 6.58719e-44 6.50604e-44 6.38471e-44 6.22107e-44 6.01438e-44 5.76552e-44 5.477e-44 5.15298e-44 4.79911e-44 4.42222e-44 4.03004e-44 3.63076e-44 3.23259e-44 2.84337e-44 2.47015e-44 2.11892e-44 1.79437e-44 1.4998e-44 1.23712e-44 1.00689e-44 8.08539e-45 6.40504e-45 5.0051e-45 3.85788e-45 2.93299e-45 2.1993e-45 1.62654e-45 1.18645e-45 8.53572e-46 6.05684e-46 4.23914e-46 2.92651e-46 1.99288e-46 1.33873e-46 8.8717e-47 5.80032e-47 3.74158e-47 2.38149e-47 1.49576e-47 9.2711e-48 5.6714e-48 3.42433e-48 2.04091e-48 1.20081e-48 6.97534e-49 4.0007e-49 2.26583e-49 1.2673e-49 7.00059e-50 3.81972e-50 2.05879e-50 1.09627e-50 5.76756e-51 2.99828e-51 1.54029e-51 7.82016e-52 3.92403e-52 1.94577e-52 9.5251e-53 4.58085e-53 2.11394e-53 8.23176e-54 0 