# vtk DataFile Version 3.0
Gray-Scott Simulation Output
ASCII
DATASET STRUCTURED_POINTS
DIMENSIONS 256 256 1
SPACING 1.0 1.0 1.0
ORIGIN 0 0 0
POINT_DATA 65536
SCALARS u double
LOOKUP_TABLE default
0 0 0 0 0 0 0 0 0 0 0 0 0 0 0 0 0 0 0 0 0 0 0 0 0 0 0 0 0 0 0 0 0 0 0 0 0 0 0 0 0 0 0 0 0 0 0 0 0 0 0 0 0 0 0 0 0 0 0 0 0 0 0 0 0 0 0 0 0 0 0 0 0 0 0 0 0 0 0 0 0 0 0 0 0 0 0 0 0 0 0 0 0 0 0 0 0 0 0 0 0 0 0 0 0 0 0 0 0 0 0 0 0 0 0 0 0 0 0 0 0 0 0 0 0 0 0 0 0 0 0 0 0 0 0 0 0 0 0 0 0 0 0 0 0 0 0 0 0 0 0 0 0 0 0 0 0 0 0 0 0 0 0 0 0 0 0 0 0 0 0 0 0 0 0 0 0 0 0 0 0 0 0 0 0 0 0 0 0 0 0 0 0 0 0 0 0 0 0 0 0 0 0 0 0 0 0 0 0 0 0 0 0 0 0 0 0 0 0 0 0 0 0 0 0 0 0 0 0 0 0 0 0 0 0 0 0 0 0 0 0 0 0 0 0 0 0 0 0 0 0 0 0 0 0 0 
0 7.25392e-98 3.95728e-97 2.06864e-96 1.06987e-95 5.48e-95 2.77979e-94 1.39634e-93 6.94515e-93 3.42014e-92 1.66741e-91 8.04701e-91 3.844e-90 1.81739e-89 8.50333e-89 3.93698e-88 1.80355e-87 8.17412e-87 3.66487e-86 1.62531e-85 7.129e-85 3.09235e-84 1.32639e-83 5.62505e-83 2.35834e-82 9.77379e-82 4.00354e-81 1.62069e-80 6.48298e-80 2.56223e-79 1.00041e-78 3.85827e-78 1.46964e-77 5.52809e-77 2.05317e-76 7.52841e-76 2.72488e-75 9.73412e-75 3.43153e-74 1.19359e-73 4.0958e-73 1.38633e-72 4.62778e-72 1.52331e-71 4.94362e-71 1.5815e-70 4.98641e-70 1.54927e-69 4.74258e-69 1.43011e-68 4.24732e-68 1.24214e-67 3.57651e-67 1.01367e-66 2.82746e-66 7.76028e-66 2.09533e-65 5.56462e-65 1.45324e-64 3.73135e-64 9.41745e-64 2.33586e-63 5.69264e-63 1.36282e-62 3.20428e-62 7.39762e-62 1.67659e-61 3.72943e-61 8.14028e-61 1.7431e-60 3.66099e-60 7.53999e-60 1.52246e-59 3.01323e-59 5.84439e-59 1.11065e-58 2.06759e-58 3.7698e-58 6.73071e-58 1.17658e-57 2.01341e-57 3.37236e-57 5.52813e-57 8.86795e-57 1.392e-56 2.13799e-56 3.21307e-56 4.72493e-56 6.79927e-56 9.57571e-56 1.32006e-55 1.7817e-55 2.35512e-55 3.04992e-55 3.87122e-55 4.81851e-55 5.88491e-55 7.05699e-55 8.31529e-55 9.63541e-55 1.09897e-54 1.23489e-54 1.36843e-54 1.49694e-54 1.6181e-54 1.73002e-54 1.83124e-54 1.92077e-54 1.99801e-54 2.06273e-54 2.11502e-54 2.15524e-54 2.18398e-54 2.20203e-54 2.21035e-54 2.21002e-54 2.20217e-54 2.18797e-54 2.16855e-54 2.14494e-54 2.11807e-54 2.08874e-54 2.05765e-54 2.02541e-54 1.9926e-54 1.9598e-54 1.92758e-54 1.89655e-54 1.86733e-54 1.84055e-54 1.81679e-54 1.79659e-54 1.78045e-54 1.76881e-54 1.76203e-54 1.76043e-54 1.7642e-54 1.77333e-54 1.78758e-54 1.80639e-54 1.82879e-54 1.85342e-54 1.87857e-54 1.90227e-54 1.92247e-54 1.93727e-54 1.94509e-54 1.9449e-54 1.93638e-54 1.91996e-54 1.89678e-54 1.86862e-54 1.83761e-54 1.80606e-54 1.77614e-54 1.74969e-54 1.72798e-54 1.71167e-54 1.70079e-54 1.6948e-54 1.69275e-54 1.69343e-54 1.69553e-54 1.69784e-54 1.69929e-54 1.69912e-54 1.69684e-54 1.69233e-54 1.68574e-54 1.67754e-54 1.66843e-54 1.65931e-54 1.6512e-54 1.64513e-54 1.64209e-54 1.64291e-54 1.64822e-54 1.65838e-54 1.6735e-54 1.69345e-54 1.71791e-54 1.74644e-54 1.77852e-54 1.81355e-54 1.85084e-54 1.88954e-54 1.92854e-54 1.96639e-54 2.0012e-54 2.03063e-54 2.05197e-54 2.06223e-54 2.05835e-54 2.03752e-54 1.99742e-54 1.93657e-54 1.85453e-54 1.75206e-54 1.63119e-54 1.49507e-54 1.34783e-54 1.19419e-54 1.03911e-54 8.87406e-55 7.43392e-55 6.10568e-55 4.91459e-55 3.87544e-55 2.99296e-55 2.26318e-55 1.67527e-55 1.21375e-55 8.60595e-56 5.97116e-56 4.05404e-56 2.69327e-56 1.75081e-56 1.11374e-56 6.93334e-57 4.22426e-57 2.51915e-57 1.47063e-57 8.40549e-58 4.70429e-58 2.5785e-58 1.38439e-58 7.28197e-59 3.75333e-59 1.89605e-59 9.38928e-60 4.55885e-60 2.17075e-60 1.01388e-60 4.64599e-61 2.08919e-61 9.22105e-62 3.99556e-62 1.70005e-62 7.10442e-63 2.91654e-63 1.17645e-63 4.66376e-64 1.81738e-64 6.96292e-65 2.62339e-65 9.72177e-66 3.54427e-66 1.27143e-66 4.48874e-67 1.55994e-67 5.33724e-68 1.79806e-68 5.96125e-69 1.93128e-69 5.65813e-70 0 
0 3.95281e-97 2.1563e-96 1.12713e-95 5.82908e-95 2.98559e-94 1.51441e-93 7.60687e-93 3.78338e-92 1.86307e-91 9.08264e-91 4.38322e-90 2.09378e-89 9.89893e-89 4.63149e-88 2.14431e-87 9.82311e-87 4.45204e-86 1.99607e-85 8.85224e-85 3.88282e-84 1.68427e-83 7.22434e-83 3.0638e-82 1.28455e-81 5.32373e-81 2.18077e-80 8.82831e-80 3.53158e-79 1.39583e-78 5.45016e-78 2.10207e-77 8.00736e-77 3.01217e-76 1.11881e-75 4.10265e-75 1.48505e-74 5.30546e-74 1.87047e-73 6.50666e-73 2.23296e-72 7.55876e-72 2.52349e-71 8.30741e-71 2.69632e-70 8.62673e-70 2.72031e-69 8.45308e-69 2.58797e-68 7.80502e-68 2.31837e-67 6.78115e-67 1.9528e-66 5.53557e-66 1.54431e-65 4.23924e-65 1.14482e-64 3.04087e-64 7.94286e-64 2.03979e-63 5.14914e-63 1.27741e-62 3.11374e-62 7.4558e-62 1.75336e-61 4.04875e-61 9.17793e-61 2.04196e-60 4.45793e-60 9.54787e-60 2.00572e-59 4.13172e-59 8.34438e-59 1.65184e-58 3.20449e-58 6.09091e-58 1.1341e-57 2.06816e-57 3.6932e-57 6.45707e-57 1.10514e-56 1.85134e-56 3.03523e-56 4.8696e-56 7.64469e-56 1.17428e-55 1.76493e-55 2.5956e-55 3.73534e-55 5.26088e-55 7.25262e-55 9.78898e-55 1.29393e-54 1.67562e-54 2.12674e-54 2.64698e-54 3.23252e-54 3.87594e-54 4.5665e-54 5.29077e-54 6.03351e-54 6.77869e-54 7.51056e-54 8.21456e-54 8.878e-54 9.49054e-54 1.00443e-53 1.05339e-53 1.09561e-53 1.13097e-53 1.15953e-53 1.18149e-53 1.19717e-53 1.20701e-53 1.21153e-53 1.21133e-53 1.20702e-53 1.19925e-53 1.18863e-53 1.17572e-53 1.16104e-53 1.14501e-53 1.12802e-53 1.11041e-53 1.09249e-53 1.07457e-53 1.05696e-53 1.04001e-53 1.02406e-53 1.00943e-53 9.96448e-54 9.85418e-54 9.76604e-54 9.70246e-54 9.6655e-54 9.65683e-54 9.67744e-54 9.7274e-54 9.80537e-54 9.9082e-54 1.00307e-53 1.01653e-53 1.03028e-53 1.04324e-53 1.05429e-53 1.06238e-53 1.06665e-53 1.06655e-53 1.06189e-53 1.05291e-53 1.04023e-53 1.02483e-53 1.00788e-53 9.90641e-54 9.74297e-54 9.59847e-54 9.47995e-54 9.39099e-54 9.33172e-54 9.29921e-54 9.28822e-54 9.2921e-54 9.30375e-54 9.31644e-54 9.32444e-54 9.3235e-54 9.31104e-54 9.28628e-54 9.25014e-54 9.20516e-54 9.1552e-54 9.10517e-54 9.06061e-54 9.02724e-54 9.01044e-54 9.01478e-54 9.04368e-54 9.09914e-54 9.18172e-54 9.29071e-54 9.42438e-54 9.58033e-54 9.75566e-54 9.94712e-54 1.0151e-53 1.03625e-53 1.05757e-53 1.07826e-53 1.09729e-53 1.11339e-53 1.12506e-53 1.13067e-53 1.12855e-53 1.11715e-53 1.0952e-53 1.06189e-53 1.01696e-53 9.60835e-54 8.94614e-54 8.20028e-54 7.39327e-54 6.55099e-54 5.70069e-54 4.86879e-54 4.07892e-54 3.35031e-54 2.69686e-54 2.12671e-54 1.64247e-54 1.242e-54 9.19362e-55 6.66076e-55 4.72261e-55 3.2766e-55 2.22449e-55 1.47772e-55 9.60548e-56 6.10978e-56 3.80313e-56 2.31687e-56 1.38151e-56 8.06396e-57 4.60837e-57 2.5788e-57 1.41327e-57 7.58668e-58 3.98999e-58 2.05622e-58 1.03855e-58 5.14208e-59 2.49625e-59 1.18841e-59 5.54969e-60 2.54264e-60 1.14317e-60 5.04472e-61 2.18554e-61 9.29759e-62 3.88475e-62 1.59452e-62 6.4308e-63 2.54893e-63 9.93112e-64 3.80432e-64 1.43312e-64 5.31008e-65 1.93562e-65 6.94264e-66 2.45074e-66 8.51576e-67 2.91325e-67 9.81324e-68 3.25307e-68 1.05379e-68 3.08704e-69 0 
0 2.06377e-96 1.12575e-95 5.88418e-95 3.04292e-94 1.55848e-93 7.9049e-93 3.97047e-92 1.97469e-91 9.72375e-91 4.74029e-90 2.28757e-89 1.09271e-88 5.16597e-88 2.41701e-87 1.11903e-86 5.12623e-86 2.32331e-85 1.04165e-84 4.61958e-84 2.02628e-83 8.7896e-83 3.77019e-82 1.59895e-81 6.70402e-81 2.77853e-80 1.13821e-79 4.60796e-79 1.8434e-78 7.28622e-78 2.84514e-77 1.0974e-76 4.18058e-76 1.57274e-75 5.84206e-75 2.14243e-74 7.75569e-74 2.77104e-73 9.77036e-73 3.39908e-72 1.16662e-71 3.94956e-71 1.31872e-70 4.34178e-70 1.40938e-69 4.50985e-69 1.42231e-68 4.42033e-68 1.35352e-67 4.08269e-67 1.2129e-66 3.54829e-66 1.02199e-65 2.89754e-65 8.08501e-65 2.21981e-64 5.99584e-64 1.59292e-63 4.16161e-63 1.06896e-62 2.69898e-62 6.69713e-62 1.6328e-61 3.91058e-61 9.19847e-61 2.12453e-60 4.81708e-60 1.07198e-59 2.34084e-59 5.01468e-59 1.05367e-58 2.17103e-58 4.38557e-58 8.68351e-58 1.68493e-57 3.20331e-57 5.96567e-57 1.08813e-56 1.9435e-56 3.3986e-56 5.8178e-56 9.74769e-56 1.59837e-55 2.56473e-55 4.02686e-55 6.1863e-55 9.29888e-55 1.36766e-54 1.96834e-54 2.77237e-54 3.82209e-54 5.15879e-54 6.81897e-54 8.83015e-54 1.12069e-53 1.39473e-53 1.7031e-53 2.04186e-53 2.40534e-53 2.78643e-53 3.17709e-53 3.56888e-53 3.9535e-53 4.3233e-53 4.67163e-53 4.99308e-53 5.28355e-53 5.54022e-53 5.76146e-53 5.94669e-53 6.09621e-53 6.2111e-53 6.29309e-53 6.3445e-53 6.36806e-53 6.36688e-53 6.34423e-53 6.30345e-53 6.24775e-53 6.1801e-53 6.10315e-53 6.01919e-53 5.93021e-53 5.83796e-53 5.74409e-53 5.65023e-53 5.55804e-53 5.46927e-53 5.3857e-53 5.3091e-53 5.24114e-53 5.18339e-53 5.13725e-53 5.10397e-53 5.08465e-53 5.08014e-53 5.09097e-53 5.11717e-53 5.15806e-53 5.21197e-53 5.27618e-53 5.34677e-53 5.41885e-53 5.48678e-53 5.54469e-53 5.58709e-53 5.60948e-53 5.60892e-53 5.58448e-53 5.53739e-53 5.47096e-53 5.39024e-53 5.30141e-53 5.21106e-53 5.12545e-53 5.04979e-53 4.98776e-53 4.94125e-53 4.91031e-53 4.89339e-53 4.88775e-53 4.88989e-53 4.89608e-53 4.90278e-53 4.90701e-53 4.90652e-53 4.89997e-53 4.88694e-53 4.86793e-53 4.84427e-53 4.81799e-53 4.79166e-53 4.7682e-53 4.75061e-53 4.7417e-53 4.7439e-53 4.75898e-53 4.78799e-53 4.83123e-53 4.88832e-53 4.95836e-53 5.04007e-53 5.13195e-53 5.23228e-53 5.33909e-53 5.44995e-53 5.5617e-53 5.67015e-53 5.76992e-53 5.85434e-53 5.91556e-53 5.94501e-53 5.9339e-53 5.8741e-53 5.75892e-53 5.58404e-53 5.34813e-53 5.05336e-53 4.70547e-53 4.31354e-53 3.88937e-53 3.44658e-53 2.99948e-53 2.56197e-53 2.14649e-53 1.76318e-53 1.41936e-53 1.11933e-53 8.64488e-54 6.53712e-54 4.83895e-54 3.50575e-54 2.48556e-54 1.72443e-54 1.17065e-54 7.77601e-55 5.05411e-55 3.21446e-55 2.00066e-55 1.21866e-55 7.26565e-56 4.24041e-56 2.42293e-56 1.35563e-56 7.42811e-57 3.98684e-57 2.09639e-57 1.08016e-57 5.45467e-58 2.7002e-58 1.31058e-58 6.23818e-59 2.91256e-59 1.33416e-59 5.99719e-60 2.646e-60 1.14612e-60 4.8748e-61 2.03642e-61 8.35708e-62 3.36984e-62 1.33544e-62 5.2022e-63 1.99246e-63 7.50449e-64 2.78015e-64 1.01325e-64 3.63373e-65 1.28251e-65 4.45575e-66 1.5241e-66 5.13319e-67 1.70142e-67 5.51083e-68 1.61421e-68 0 
0 1.06602e-95 5.81467e-95 3.03912e-94 1.57157e-93 8.04867e-93 4.08228e-92 2.05037e-91 1.01971e-90 5.02108e-90 2.4477e-89 1.18118e-88 5.64207e-88 2.66735e-87 1.24796e-86 5.77777e-86 2.64677e-85 1.19957e-84 5.37827e-84 2.38521e-83 1.04623e-82 4.53843e-82 1.94675e-81 8.25642e-81 3.46183e-80 1.43483e-79 5.87794e-79 2.37974e-78 9.52056e-78 3.7633e-77 1.46959e-76 5.66875e-76 2.15967e-75 8.1253e-75 3.01845e-74 1.10704e-73 4.00789e-73 1.43212e-72 5.05001e-72 1.75708e-71 6.03126e-71 2.04211e-70 6.81923e-70 2.24548e-69 7.29003e-69 2.33305e-68 7.35906e-68 2.28743e-67 7.0053e-67 2.1134e-66 6.27963e-66 1.83741e-65 5.29314e-65 1.50099e-64 4.18901e-64 1.15036e-63 3.10782e-63 8.25829e-63 2.15799e-62 5.54425e-62 1.40016e-61 3.47509e-61 8.47442e-61 2.0301e-60 4.77633e-60 1.10343e-59 2.50247e-59 5.57025e-59 1.21665e-58 2.607e-58 5.4791e-58 1.1292e-57 2.28158e-57 4.51863e-57 8.76989e-57 1.66767e-56 3.10645e-56 5.66734e-56 1.01245e-55 1.77082e-55 3.03191e-55 5.08086e-55 8.33269e-55 1.33727e-54 2.09992e-54 3.22643e-54 4.8503e-54 7.13437e-54 1.02686e-53 1.44638e-53 1.9941e-53 2.69154e-53 3.55768e-53 4.60683e-53 5.84649e-53 7.27557e-53 8.88331e-53 1.0649e-52 1.2543e-52 1.45281e-52 1.65622e-52 1.86013e-52 2.06021e-52 2.2525e-52 2.43353e-52 2.6005e-52 2.75131e-52 2.8845e-52 2.99925e-52 3.09528e-52 3.17275e-52 3.23225e-52 3.27469e-52 3.30126e-52 3.3134e-52 3.31273e-52 3.30093e-52 3.27974e-52 3.25083e-52 3.21573e-52 3.17582e-52 3.13229e-52 3.08615e-52 3.03832e-52 2.98966e-52 2.941e-52 2.89321e-52 2.84719e-52 2.80387e-52 2.76417e-52 2.72895e-52 2.69902e-52 2.67511e-52 2.65787e-52 2.64787e-52 2.64554e-52 2.65118e-52 2.66479e-52 2.686e-52 2.71398e-52 2.7473e-52 2.78394e-52 2.82134e-52 2.85659e-52 2.88664e-52 2.90864e-52 2.92025e-52 2.91996e-52 2.90727e-52 2.88283e-52 2.84836e-52 2.80648e-52 2.7604e-52 2.71354e-52 2.66915e-52 2.62993e-52 2.5978e-52 2.57373e-52 2.55775e-52 2.54904e-52 2.54617e-52 2.54734e-52 2.55059e-52 2.5541e-52 2.55631e-52 2.55606e-52 2.55265e-52 2.54586e-52 2.53597e-52 2.52364e-52 2.50996e-52 2.49624e-52 2.48401e-52 2.47483e-52 2.47016e-52 2.47126e-52 2.47905e-52 2.49407e-52 2.51648e-52 2.54609e-52 2.58241e-52 2.62479e-52 2.67245e-52 2.72449e-52 2.7799e-52 2.83741e-52 2.89538e-52 2.95165e-52 3.00344e-52 3.04726e-52 3.07905e-52 3.09435e-52 3.08861e-52 3.05756e-52 2.99774e-52 2.90688e-52 2.78427e-52 2.63102e-52 2.4501e-52 2.24624e-52 2.02555e-52 1.79511e-52 1.56238e-52 1.3346e-52 1.11825e-52 9.18615e-53 7.39523e-53 5.83223e-53 4.50451e-53 3.40628e-53 2.52141e-53 1.82669e-53 1.29507e-53 8.98448e-54 6.0988e-54 4.0508e-54 2.63262e-54 1.67419e-54 1.04188e-54 6.34554e-55 3.78269e-55 2.20733e-55 1.26105e-55 7.05436e-56 3.86472e-56 2.07391e-56 1.09031e-56 5.61674e-57 2.83581e-57 1.40352e-57 6.81077e-58 3.24118e-58 1.51297e-58 6.92905e-59 3.11405e-59 1.37366e-59 5.94879e-60 2.5297e-60 1.05656e-60 4.33504e-61 1.74769e-61 6.92459e-62 2.69697e-62 1.03276e-62 3.88913e-63 1.44053e-63 5.24924e-64 1.88218e-64 6.64197e-65 2.30722e-65 7.89069e-66 2.65721e-66 8.80617e-67 2.8519e-67 8.35279e-68 0 
0 5.45333e-95 2.97442e-94 1.55455e-93 8.03843e-93 4.11666e-92 2.08789e-91 1.04863e-90 5.215e-90 2.56782e-89 1.25174e-88 6.04041e-88 2.88523e-87 1.36401e-86 6.38168e-86 2.95456e-85 1.35347e-84 6.13422e-84 2.75031e-83 1.21975e-82 5.35033e-82 2.32096e-81 9.95593e-81 4.22258e-80 1.77054e-79 7.3387e-79 3.00652e-78 1.21728e-77 4.8702e-77 1.92522e-76 7.51856e-76 2.90039e-75 1.10507e-74 4.15793e-74 1.54476e-73 5.66604e-73 2.05151e-72 7.33134e-72 2.5855e-71 8.99687e-71 3.0886e-70 1.04589e-69 3.49303e-69 1.15037e-68 3.73525e-68 1.19558e-67 3.77178e-67 1.17258e-66 3.59166e-66 1.08374e-65 3.22075e-65 9.42559e-65 2.71582e-64 7.70282e-64 2.15017e-63 5.90589e-63 1.59588e-62 4.24161e-62 1.10863e-61 2.84891e-61 7.19642e-61 1.78651e-60 4.35767e-60 1.04416e-59 2.45726e-59 5.67817e-59 1.28808e-58 2.86786e-58 6.26553e-58 1.3429e-57 2.82307e-57 5.8196e-57 1.17616e-56 2.32993e-56 4.52309e-56 8.60307e-56 1.60291e-55 2.92498e-55 5.22651e-55 9.14333e-55 1.56578e-54 2.62443e-54 4.30485e-54 6.90974e-54 1.0852e-53 1.66758e-53 2.50717e-53 3.68818e-53 5.30885e-53 7.47822e-53 1.03104e-52 1.39167e-52 1.83949e-52 2.38188e-52 3.02265e-52 3.76119e-52 4.59187e-52 5.50392e-52 6.48189e-52 7.50652e-52 8.55604e-52 9.60767e-52 1.06391e-51 1.16298e-51 1.2562e-51 1.34214e-51 1.41972e-51 1.4882e-51 1.54717e-51 1.59649e-51 1.63627e-51 1.66679e-51 1.68855e-51 1.70216e-51 1.70836e-51 1.70797e-51 1.70188e-51 1.69098e-51 1.6761e-51 1.65806e-51 1.63755e-51 1.61518e-51 1.59148e-51 1.56691e-51 1.54191e-51 1.51692e-51 1.49237e-51 1.46873e-51 1.44648e-51 1.42609e-51 1.408e-51 1.39263e-51 1.38036e-51 1.37151e-51 1.36638e-51 1.3652e-51 1.3681e-51 1.3751e-51 1.38601e-51 1.4004e-51 1.41753e-51 1.43637e-51 1.4556e-51 1.47373e-51 1.48918e-51 1.50049e-51 1.50646e-51 1.50631e-51 1.49978e-51 1.48721e-51 1.46949e-51 1.44796e-51 1.42427e-51 1.40019e-51 1.37738e-51 1.35724e-51 1.34076e-51 1.32841e-51 1.32023e-51 1.31579e-51 1.31435e-51 1.31498e-51 1.31667e-51 1.31849e-51 1.31964e-51 1.31951e-51 1.31775e-51 1.31425e-51 1.30914e-51 1.30278e-51 1.29572e-51 1.28864e-51 1.28232e-51 1.27757e-51 1.27515e-51 1.27569e-51 1.27967e-51 1.28738e-51 1.29889e-51 1.31411e-51 1.33277e-51 1.35456e-51 1.37905e-51 1.4058e-51 1.43428e-51 1.46384e-51 1.49364e-51 1.52258e-51 1.54921e-51 1.57175e-51 1.58811e-51 1.596e-51 1.59305e-51 1.57709e-51 1.54631e-51 1.49953e-51 1.43639e-51 1.35745e-51 1.26423e-51 1.15915e-51 1.04536e-51 9.26528e-52 8.06483e-52 6.88964e-52 5.77321e-52 4.74287e-52 3.81842e-52 3.01151e-52 2.32599e-52 1.75892e-52 1.30198e-52 9.43229e-53 6.68697e-53 4.6388e-53 3.14867e-53 2.09115e-53 1.35891e-53 8.64087e-54 5.37671e-54 3.27421e-54 1.95152e-54 1.1386e-54 6.5037e-55 3.63755e-55 1.99245e-55 1.06899e-55 5.61888e-56 2.89398e-56 1.46083e-56 7.2285e-57 3.50698e-57 1.66858e-57 7.78718e-58 3.56557e-58 1.60209e-58 7.06554e-59 3.05916e-59 1.30062e-59 5.43103e-60 2.22788e-60 8.97993e-61 3.55726e-61 1.3852e-61 5.30335e-62 1.99674e-62 7.39452e-63 2.69405e-63 9.6581e-64 3.40764e-64 1.18351e-64 4.04696e-65 1.36261e-65 4.51511e-66 1.46202e-66 4.28154e-67 0 
0 2.76269e-94 1.50679e-93 7.87477e-93 4.07181e-92 2.08519e-91 1.05753e-90 5.31125e-90 2.64129e-89 1.30052e-88 6.33955e-88 3.05917e-87 1.46121e-86 6.90791e-86 3.23194e-85 1.49631e-84 6.85455e-84 3.10666e-83 1.3929e-82 6.17757e-82 2.7098e-81 1.17553e-80 5.04271e-80 2.13883e-79 8.96854e-79 3.71752e-78 1.52307e-77 6.16697e-77 2.46748e-76 9.75475e-76 3.8098e-75 1.4698e-74 5.6005e-74 2.10742e-73 7.83025e-73 2.87235e-72 1.04011e-71 3.71737e-71 1.31113e-70 4.56297e-70 1.56666e-69 5.3059e-69 1.77229e-68 5.83758e-68 1.89576e-67 6.06894e-67 1.91492e-66 5.95419e-66 1.82411e-65 5.50507e-65 1.63635e-64 4.78976e-64 1.38036e-63 3.91592e-63 1.09333e-62 3.00371e-62 8.11839e-62 2.15824e-61 5.64233e-61 1.45029e-60 3.66436e-60 9.09904e-60 2.22e-59 5.32081e-59 1.25249e-58 2.89497e-58 6.5689e-58 1.46293e-57 3.19696e-57 6.85391e-57 1.44122e-56 2.97178e-56 6.00761e-56 1.1904e-55 2.31151e-55 4.39766e-55 8.19566e-55 1.49589e-54 2.67354e-54 4.67816e-54 8.01297e-54 1.34333e-53 2.20387e-53 3.53804e-53 5.5575e-53 8.54113e-53 1.28429e-52 1.88946e-52 2.71995e-52 3.83164e-52 5.28299e-52 7.1309e-52 9.42545e-52 1.22042e-51 1.54865e-51 1.92688e-51 2.35219e-51 2.81903e-51 3.31945e-51 3.84354e-51 4.38013e-51 4.91755e-51 5.44438e-51 5.95015e-51 6.42582e-51 6.86408e-51 7.25947e-51 7.60831e-51 7.90855e-51 8.15954e-51 8.36183e-51 8.51701e-51 8.62752e-51 8.69655e-51 8.72788e-51 8.72573e-51 8.69457e-51 8.63891e-51 8.56312e-51 8.47121e-51 8.36677e-51 8.25288e-51 8.13223e-51 8.00717e-51 7.87994e-51 7.75272e-51 7.62779e-51 7.5075e-51 7.39428e-51 7.2905e-51 7.19846e-51 7.12027e-51 7.05782e-51 7.01283e-51 6.98675e-51 6.98076e-51 6.99558e-51 7.03127e-51 7.08688e-51 7.16019e-51 7.24748e-51 7.34346e-51 7.44145e-51 7.53379e-51 7.61252e-51 7.67015e-51 7.70057e-51 7.69979e-51 7.66653e-51 7.60249e-51 7.51219e-51 7.4025e-51 7.28185e-51 7.15923e-51 7.04313e-51 6.94066e-51 6.85682e-51 6.79412e-51 6.75261e-51 6.73017e-51 6.72302e-51 6.72637e-51 6.73513e-51 6.74449e-51 6.75036e-51 6.7497e-51 6.7407e-51 6.72279e-51 6.69668e-51 6.66417e-51 6.62804e-51 6.59183e-51 6.55951e-51 6.53518e-51 6.52269e-51 6.52533e-51 6.54554e-51 6.58473e-51 6.64332e-51 6.72077e-51 6.81583e-51 6.92676e-51 7.05149e-51 7.18772e-51 7.33276e-51 7.48332e-51 7.63514e-51 7.78256e-51 7.91827e-51 8.0332e-51 8.11667e-51 8.15695e-51 8.14204e-51 8.06073e-51 7.90382e-51 7.66525e-51 7.34308e-51 6.94013e-51 6.46415e-51 5.92747e-51 5.34619e-51 4.73892e-51 4.12533e-51 3.52451e-51 2.95362e-51 2.42666e-51 1.95378e-51 1.54097e-51 1.19023e-51 9.0006e-52 6.66236e-52 4.82647e-52 3.42156e-52 2.37342e-52 1.61088e-52 1.06975e-52 6.95091e-53 4.41933e-53 2.74953e-53 1.67411e-53 9.97657e-54 5.81976e-54 3.32366e-54 1.85859e-54 1.01784e-54 5.45979e-55 2.86919e-55 1.47745e-55 7.45625e-56 3.68869e-56 1.78921e-56 8.51089e-57 3.97109e-57 1.81785e-57 8.16614e-58 3.60062e-58 1.5586e-58 6.625e-59 2.76581e-59 1.13432e-59 4.57113e-60 1.8104e-60 7.04821e-61 2.69791e-61 1.01557e-61 3.76024e-62 1.36971e-62 4.90945e-63 1.73187e-63 6.01393e-64 2.05608e-64 6.92165e-65 2.29318e-65 7.42435e-66 2.17395e-66 0 
0 1.38592e-93 7.55864e-93 3.95013e-92 2.04242e-91 1.0459e-90 5.30425e-90 2.66389e-89 1.32473e-88 6.52256e-88 3.17946e-87 1.53424e-86 7.32825e-86 3.46443e-85 1.62087e-84 7.50427e-84 3.43772e-83 1.55808e-82 6.98596e-82 3.09836e-81 1.35914e-80 5.89624e-80 2.52941e-79 1.07287e-78 4.49899e-78 1.86496e-77 7.64119e-77 3.09413e-76 1.23808e-75 4.89489e-75 1.91189e-74 7.37657e-74 2.81101e-73 1.05786e-72 3.93094e-72 1.44213e-71 5.22268e-71 1.86682e-70 6.58518e-70 2.29206e-69 7.87067e-69 2.66599e-68 8.90635e-68 2.93403e-67 9.52984e-67 3.05133e-66 9.62949e-66 2.9947e-65 9.17624e-65 2.76987e-64 8.23495e-64 2.41095e-63 6.94961e-63 1.97195e-62 5.50693e-62 1.51327e-61 4.09103e-61 1.08785e-60 2.84468e-60 7.31373e-60 1.84839e-59 4.59096e-59 1.12041e-58 2.68607e-58 6.32457e-58 1.46224e-57 3.31885e-57 7.39331e-57 1.61612e-56 3.46574e-56 7.28968e-56 1.50354e-55 3.04031e-55 6.02596e-55 1.17043e-54 2.22733e-54 4.15201e-54 7.5802e-54 1.35511e-53 2.37171e-53 4.06326e-53 6.81322e-53 1.118e-52 1.79513e-52 2.82022e-52 4.33493e-52 6.51908e-52 9.59191e-52 1.38091e-51 1.94544e-51 2.68244e-51 3.62077e-51 4.7858e-51 6.19649e-51 7.86255e-51 9.78202e-51 1.19399e-50 1.43077e-50 1.68449e-50 1.95011e-50 2.22194e-50 2.49407e-50 2.76069e-50 3.01652e-50 3.25698e-50 3.4784e-50 3.67806e-50 3.85411e-50 4.00555e-50 4.13207e-50 4.234e-50 4.31213e-50 4.36773e-50 4.40242e-50 4.4181e-50 4.41691e-50 4.40111e-50 4.37297e-50 4.3347e-50 4.28832e-50 4.23562e-50 4.17817e-50 4.11732e-50 4.05426e-50 3.9901e-50 3.92595e-50 3.86295e-50 3.8023e-50 3.74521e-50 3.69289e-50 3.64649e-50 3.60707e-50 3.5756e-50 3.55293e-50 3.5398e-50 3.5368e-50 3.5443e-50 3.56232e-50 3.5904e-50 3.62741e-50 3.67147e-50 3.71992e-50 3.76939e-50 3.81601e-50 3.85576e-50 3.88485e-50 3.90021e-50 3.89981e-50 3.88302e-50 3.85069e-50 3.8051e-50 3.74974e-50 3.68886e-50 3.62699e-50 3.56844e-50 3.51678e-50 3.47454e-50 3.44299e-50 3.42213e-50 3.41091e-50 3.40738e-50 3.40915e-50 3.41364e-50 3.41841e-50 3.42139e-50 3.42106e-50 3.4165e-50 3.40743e-50 3.39419e-50 3.37772e-50 3.35942e-50 3.34107e-50 3.32468e-50 3.31232e-50 3.30595e-50 3.30723e-50 3.31738e-50 3.33712e-50 3.36667e-50 3.40573e-50 3.4537e-50 3.50967e-50 3.57261e-50 3.64135e-50 3.71453e-50 3.79052e-50 3.86714e-50 3.94156e-50 4.01009e-50 4.06815e-50 4.11035e-50 4.13075e-50 4.12328e-50 4.08227e-50 4.00303e-50 3.88248e-50 3.71962e-50 3.51585e-50 3.27506e-50 3.00348e-50 2.70923e-50 2.40175e-50 2.09099e-50 1.78662e-50 1.49736e-50 1.2303e-50 9.9061e-51 7.8134e-51 6.03514e-51 4.56386e-51 3.3782e-51 2.44723e-51 1.7348e-51 1.2033e-51 8.16637e-52 5.42259e-52 3.52303e-52 2.23963e-52 1.39321e-52 8.48151e-53 5.05357e-53 2.94743e-53 1.68296e-53 9.40922e-54 5.15179e-54 2.76289e-54 1.45161e-54 7.47317e-55 3.77062e-55 1.86493e-55 9.04374e-56 4.3009e-56 2.00627e-56 9.18195e-57 4.12371e-57 1.81779e-57 7.86683e-58 3.34308e-58 1.39534e-58 5.72132e-59 2.30507e-59 9.12718e-60 3.55259e-60 1.35957e-60 5.11672e-61 1.89411e-61 6.89811e-62 2.47201e-62 8.71866e-63 3.02699e-63 1.0347e-63 3.48264e-64 1.15362e-64 3.73435e-65 1.09333e-65 0 
0 6.88411e-93 3.75436e-92 1.96195e-91 1.0144e-90 5.19443e-90 2.63428e-89 1.32295e-88 6.57879e-88 3.23915e-87 1.57893e-86 7.61903e-86 3.63918e-85 1.72043e-84 8.04924e-84 3.72665e-83 1.70721e-82 7.73775e-82 3.46944e-81 1.53878e-80 6.7503e-80 2.92853e-79 1.25635e-78 5.3292e-78 2.23486e-77 9.26466e-77 3.79619e-76 1.53729e-75 6.15174e-75 2.43234e-74 9.50127e-74 3.66617e-73 1.39721e-72 5.25863e-72 1.95428e-71 7.17041e-71 2.59708e-70 9.28429e-70 3.27546e-69 1.14022e-68 3.91597e-68 1.32664e-67 4.43263e-67 1.46049e-66 4.74454e-66 1.51941e-65 4.79589e-65 1.49177e-64 4.57193e-64 1.38033e-63 4.10465e-63 1.20198e-62 3.46551e-62 9.83564e-62 2.74738e-61 7.55148e-61 2.042e-60 5.43126e-60 1.42062e-59 3.65341e-59 9.2357e-59 2.29456e-58 5.60135e-58 1.34325e-57 3.16368e-57 7.31654e-57 1.66111e-56 3.70148e-56 8.09352e-56 1.73615e-55 3.65279e-55 7.53627e-55 1.52435e-54 3.02215e-54 5.87159e-54 1.11767e-53 2.08403e-53 3.80575e-53 6.80522e-53 1.19134e-52 2.04149e-52 3.42389e-52 5.61949e-52 9.02471e-52 1.41806e-51 2.18002e-51 3.27886e-51 4.82492e-51 6.94687e-51 9.78745e-51 1.34959e-50 1.82171e-50 2.40784e-50 3.11749e-50 3.95544e-50 4.92064e-50 6.00541e-50 7.19536e-50 8.46998e-50 9.80381e-50 1.11682e-49 1.25334e-49 1.38703e-49 1.51522e-49 1.63565e-49 1.74648e-49 1.84635e-49 1.93437e-49 2.01004e-49 2.07322e-49 2.12409e-49 2.16306e-49 2.19077e-49 2.20803e-49 2.2158e-49 2.21515e-49 2.20721e-49 2.19312e-49 2.17397e-49 2.15077e-49 2.12444e-49 2.09573e-49 2.06532e-49 2.03382e-49 2.00176e-49 1.96972e-49 1.93825e-49 1.90795e-49 1.87943e-49 1.8533e-49 1.83013e-49 1.81044e-49 1.79473e-49 1.78341e-49 1.77686e-49 1.77537e-49 1.77913e-49 1.78815e-49 1.80219e-49 1.8207e-49 1.84274e-49 1.86697e-49 1.89171e-49 1.91503e-49 1.93491e-49 1.94946e-49 1.95714e-49 1.95695e-49 1.94855e-49 1.93238e-49 1.90958e-49 1.8819e-49 1.85146e-49 1.82054e-49 1.79128e-49 1.76548e-49 1.7444e-49 1.72866e-49 1.71829e-49 1.71272e-49 1.71101e-49 1.71193e-49 1.71421e-49 1.71662e-49 1.71812e-49 1.71796e-49 1.71566e-49 1.71111e-49 1.70447e-49 1.6962e-49 1.68701e-49 1.67779e-49 1.66956e-49 1.66334e-49 1.66012e-49 1.66073e-49 1.66579e-49 1.67564e-49 1.6904e-49 1.70993e-49 1.7339e-49 1.76188e-49 1.79334e-49 1.82771e-49 1.8643e-49 1.90228e-49 1.9406e-49 1.97782e-49 2.01211e-49 2.04117e-49 2.06232e-49 2.07256e-49 2.06886e-49 2.04837e-49 2.00873e-49 1.9484e-49 1.86684e-49 1.76475e-49 1.64407e-49 1.50791e-49 1.36034e-49 1.20608e-49 1.05014e-49 8.97371e-50 7.52146e-50 6.18045e-50 4.97666e-50 3.9255e-50 3.03217e-50 2.29299e-50 1.69727e-50 1.2295e-50 8.7153e-51 6.04474e-51 4.10199e-51 2.72351e-51 1.76924e-51 1.12457e-51 6.99457e-52 4.25744e-52 2.53627e-52 1.47897e-52 8.4431e-53 4.71945e-53 2.58345e-53 1.38519e-53 7.27603e-54 3.74494e-54 1.88907e-54 9.34095e-55 4.52864e-55 2.15313e-55 1.00413e-55 4.59436e-56 2.06286e-56 9.09109e-57 3.93335e-57 1.6711e-57 6.97315e-58 2.8585e-58 1.15139e-58 4.55797e-59 1.7737e-59 6.78636e-60 2.55347e-60 9.4504e-61 3.44098e-61 1.23285e-61 4.34733e-62 1.50904e-62 5.15727e-63 1.73553e-63 5.7479e-64 1.86032e-64 5.44582e-65 0 
0 3.38547e-92 1.84626e-91 9.64783e-91 4.98811e-90 2.55421e-89 1.2953e-88 6.50495e-88 3.23474e-87 1.59265e-86 7.76332e-86 3.74613e-85 1.78932e-84 8.45906e-84 3.95772e-83 1.83238e-82 8.39441e-82 3.80477e-81 1.70602e-80 7.56688e-80 3.31954e-79 1.4402e-78 6.17883e-78 2.62107e-77 1.09924e-76 4.5572e-76 1.86744e-75 7.56283e-75 3.02665e-74 1.19681e-73 4.67543e-73 1.80424e-72 6.87683e-72 2.58849e-71 9.62077e-71 3.53037e-70 1.27884e-69 4.57234e-69 1.61333e-68 5.61701e-68 1.92939e-67 6.53738e-67 2.18467e-66 7.19944e-66 2.33923e-65 7.49264e-65 2.36545e-64 7.35927e-64 2.25591e-63 6.8124e-63 2.02623e-62 5.93485e-62 1.71152e-61 4.85871e-61 1.35752e-60 3.73224e-60 1.0095e-59 2.68575e-59 7.02687e-59 1.8076e-58 4.57084e-58 1.13592e-57 2.77376e-57 6.65365e-57 1.56757e-56 3.62635e-56 8.2356e-56 1.83571e-55 4.01511e-55 8.61547e-55 1.81322e-54 3.74208e-54 7.57133e-54 1.50152e-53 2.9181e-53 5.55627e-53 1.03632e-52 1.89299e-52 3.38583e-52 5.92881e-52 1.01622e-51 1.70474e-51 2.79851e-51 4.4952e-51 7.06461e-51 1.08623e-50 1.63398e-50 2.40472e-50 3.46262e-50 4.87883e-50 6.72769e-50 9.08138e-50 1.20032e-49 1.55402e-49 1.97161e-49 2.45249e-49 2.99279e-49 3.58529e-49 4.2197e-49 4.88329e-49 5.56178e-49 6.24028e-49 6.90433e-49 7.54075e-49 8.13823e-49 8.68774e-49 9.18262e-49 9.61848e-49 9.99297e-49 1.03055e-48 1.0557e-48 1.07495e-48 1.08862e-48 1.09713e-48 1.10094e-48 1.10059e-48 1.09664e-48 1.08964e-48 1.08015e-48 1.06866e-48 1.05562e-48 1.04141e-48 1.02636e-48 1.01077e-48 9.94904e-49 9.79045e-49 9.63472e-49 9.48479e-49 9.34368e-49 9.21437e-49 9.09971e-49 9.00233e-49 8.92459e-49 8.86862e-49 8.83625e-49 8.82894e-49 8.8476e-49 8.8923e-49 8.96189e-49 9.05361e-49 9.1628e-49 9.28287e-49 9.40547e-49 9.52102e-49 9.61953e-49 9.69164e-49 9.7297e-49 9.72872e-49 9.6871e-49 9.60698e-49 9.49404e-49 9.3569e-49 9.20615e-49 9.05305e-49 8.90823e-49 8.78059e-49 8.67635e-49 8.59865e-49 8.5475e-49 8.52019e-49 8.51194e-49 8.51673e-49 8.52817e-49 8.5402e-49 8.54771e-49 8.54689e-49 8.53549e-49 8.51283e-49 8.47979e-49 8.43866e-49 8.39296e-49 8.34711e-49 8.30613e-49 8.27516e-49 8.25905e-49 8.26192e-49 8.28683e-49 8.33557e-49 8.40862e-49 8.50529e-49 8.62401e-49 8.76258e-49 8.91839e-49 9.08857e-49 9.26978e-49 9.45795e-49 9.64776e-49 9.83221e-49 1.00022e-48 1.01463e-48 1.02513e-48 1.03023e-48 1.02842e-48 1.01828e-48 9.98645e-49 9.68729e-49 9.2827e-49 8.77603e-49 8.17684e-49 7.50054e-49 6.76733e-49 6.00067e-49 5.22539e-49 4.46568e-49 3.74333e-49 3.07617e-49 2.47717e-49 1.95403e-49 1.50939e-49 1.14144e-49 8.44885e-50 6.12014e-50 4.33803e-50 3.00855e-50 2.04143e-50 1.35526e-50 8.80287e-51 5.59453e-51 3.47911e-51 2.11729e-51 1.26109e-51 7.3523e-52 4.19638e-52 2.34513e-52 1.28344e-52 6.87988e-53 3.61294e-53 1.8591e-53 9.3755e-54 4.63474e-54 2.2464e-54 1.06776e-54 4.9783e-55 2.27719e-55 1.02218e-55 4.5036e-56 1.94801e-56 8.27405e-57 3.4517e-57 1.41459e-57 5.69646e-58 2.25448e-58 8.77101e-59 3.35507e-59 1.2621e-59 4.66997e-60 1.7e-60 6.08951e-61 2.14685e-61 7.45054e-62 2.54578e-62 8.56543e-63 2.83624e-63 9.17795e-64 2.68631e-64 0 