# vtk DataFile Version 3.0
Gray-Scott Simulation Output
ASCII
DATASET STRUCTURED_POINTS
DIMENSIONS 256 256 1
SPACING 1.0 1.0 1.0
ORIGIN 0 0 0
POINT_DATA 65536
SCALARS u double
LOOKUP_TABLE default
0 0 0 0 0 0 0 0 0 0 0 0 0 0 0 0 0 0 0 0 0 0 0 0 0 0 0 0 0 0 0 0 0 0 0 0 0 0 0 0 0 0 0 0 0 0 0 0 0 0 0 0 0 0 0 0 0 0 0 0 0 0 0 0 0 0 0 0 0 0 0 0 0 0 0 0 0 0 0 0 0 0 0 0 0 0 0 0 0 0 0 0 0 0 0 0 0 0 0 0 0 0 0 0 0 0 0 0 0 0 0 0 0 0 0 0 0 0 0 0 0 0 0 0 0 0 0 0 0 0 0 0 0 0 0 0 0 0 0 0 0 0 0 0 0 0 0 0 0 0 0 0 0 0 0 0 0 0 0 0 0 0 0 0 0 0 0 0 0 0 0 0 0 0 0 0 0 0 0 0 0 0 0 0 0 0 0 0 0 0 0 0 0 0 0 0 0 0 0 0 0 0 0 0 0 0 0 0 0 0 0 0 0 0 0 0 0 0 0 0 0 0 0 0 0 0 0 0 0 0 0 0 0 0 0 0 0 0 0 0 0 0 0 0 0 0 0 0 0 0 0 0 0 0 0 0 
0 2.3266e-82 9.32346e-82 3.47934e-81 1.28184e-80 4.68001e-80 1.69367e-79 6.07516e-79 2.15977e-78 7.60933e-78 2.65673e-77 9.19132e-77 3.15072e-76 1.07007e-75 3.60041e-75 1.20005e-74 3.96208e-74 1.29565e-73 4.19627e-73 1.34591e-72 4.27473e-72 1.34435e-71 4.18588e-71 1.29033e-70 3.93747e-70 1.18932e-69 3.5556e-69 1.052e-68 3.08019e-68 8.92386e-68 2.55803e-67 7.25433e-67 2.03511e-66 5.64723e-66 1.54989e-65 4.2067e-65 1.12906e-64 2.99627e-64 7.86131e-64 2.03898e-63 5.22746e-63 1.3246e-62 3.31703e-62 8.208e-62 2.0068e-61 4.84733e-61 1.1566e-60 2.72586e-60 6.34467e-60 1.45833e-59 3.30972e-59 7.41595e-59 1.64034e-58 3.5813e-58 7.7168e-58 1.64087e-57 3.44268e-57 7.12617e-57 1.45513e-56 2.93076e-56 5.82158e-56 1.14034e-55 2.20245e-55 4.19381e-55 7.87211e-55 1.45647e-54 2.6558e-54 4.77222e-54 8.4495e-54 1.47395e-53 2.53296e-53 4.28772e-53 7.14886e-53 1.17387e-52 1.8982e-52 3.0225e-52 4.73875e-52 7.31491e-52 1.11168e-51 1.66324e-51 2.44977e-51 3.55208e-51 5.0702e-51 7.12457e-51 9.85593e-51 1.34234e-50 1.80006e-50 2.37691e-50 3.09092e-50 3.95895e-50 4.99535e-50 6.21064e-50 7.61022e-50 9.19327e-50 1.0952e-49 1.28712e-49 1.49287e-49 1.70958e-49 1.93386e-49 2.16198e-49 2.39003e-49 2.61414e-49 2.83066e-49 3.03629e-49 3.22826e-49 3.40434e-49 3.56293e-49 3.70301e-49 3.82411e-49 3.92628e-49 4.00994e-49 4.07588e-49 4.12515e-49 4.15895e-49 4.17865e-49 4.18567e-49 4.18146e-49 4.16747e-49 4.14514e-49 4.11585e-49 4.08089e-49 4.04154e-49 3.99897e-49 3.95431e-49 3.90863e-49 3.86295e-49 3.81826e-49 3.7755e-49 3.73556e-49 3.69929e-49 3.66748e-49 3.64081e-49 3.61987e-49 3.6051e-49 3.59675e-49 3.59489e-49 3.59929e-49 3.60949e-49 3.62472e-49 3.6439e-49 3.66571e-49 3.68862e-49 3.71095e-49 3.73102e-49 3.74721e-49 3.75816e-49 3.76282e-49 3.76058e-49 3.75133e-49 3.73543e-49 3.71376e-49 3.68752e-49 3.65822e-49 3.62747e-49 3.59687e-49 3.56782e-49 3.54145e-49 3.51852e-49 3.4994e-49 3.48406e-49 3.47212e-49 3.46297e-49 3.45582e-49 3.44985e-49 3.44429e-49 3.43852e-49 3.43215e-49 3.42504e-49 3.41731e-49 3.40938e-49 3.40185e-49 3.39554e-49 3.39135e-49 3.39022e-49 3.39306e-49 3.40068e-49 3.4137e-49 3.43259e-49 3.45753e-49 3.48849e-49 3.52514e-49 3.5669e-49 3.61286e-49 3.66186e-49 3.71236e-49 3.7625e-49 3.81008e-49 3.8525e-49 3.88688e-49 3.91002e-49 3.91863e-49 3.90934e-49 3.87902e-49 3.8249e-49 3.74484e-49 3.63751e-49 3.50263e-49 3.34101e-49 3.15464e-49 2.94665e-49 2.72114e-49 2.48301e-49 2.23766e-49 1.99066e-49 1.74749e-49 1.51316e-49 1.29201e-49 1.08751e-49 9.02153e-50 7.37405e-50 5.93785e-50 4.70954e-50 3.6787e-50 2.82962e-50 2.14307e-50 1.59805e-50 1.17318e-50 8.479e-51 6.03281e-51 4.22559e-51 2.91373e-51 1.97794e-51 1.32188e-51 8.69772e-52 5.63469e-52 3.59428e-52 2.25767e-52 1.39651e-52 8.5074e-53 5.10453e-53 3.01689e-53 1.75649e-53 1.00753e-53 5.69428e-54 3.17126e-54 1.74054e-54 9.41549e-55 5.02058e-55 2.63916e-55 1.36781e-55 6.99017e-56 3.52287e-56 1.75107e-56 8.58534e-57 4.15251e-57 1.98158e-57 9.33061e-58 4.33568e-58 1.98838e-58 9.00081e-59 4.02173e-59 1.77303e-59 7.6904e-60 3.22525e-60 1.16726e-60 0 
0 9.31181e-82 3.73196e-81 1.39288e-80 5.13225e-80 1.87406e-79 6.78309e-79 2.43344e-78 8.65241e-78 3.04892e-77 1.06467e-76 3.68401e-76 1.26307e-75 4.29049e-75 1.44387e-74 4.81345e-74 1.58951e-73 5.19894e-73 1.68414e-72 5.40282e-72 1.71636e-71 5.39891e-71 1.68143e-70 5.18435e-70 1.58239e-69 4.78081e-69 1.42963e-68 4.23094e-68 1.23911e-67 3.59088e-67 1.02961e-66 2.92068e-66 8.19589e-66 2.27494e-65 6.24543e-65 1.69564e-64 4.55241e-64 1.20849e-63 3.17171e-63 8.22908e-63 2.11044e-62 5.34947e-62 1.34005e-61 3.3171e-61 8.11292e-61 1.96033e-60 4.67914e-60 1.10317e-59 2.56866e-59 5.90626e-59 1.34094e-58 3.00573e-58 6.65092e-58 1.45263e-57 3.13125e-57 6.66071e-57 1.39801e-56 2.89494e-56 5.91361e-56 1.19151e-55 2.36771e-55 4.63967e-55 8.96449e-55 1.70762e-54 3.20654e-54 5.93484e-54 1.08258e-53 1.94599e-53 3.44669e-53 6.01452e-53 1.03393e-52 1.75077e-52 2.91994e-52 4.79607e-52 7.75762e-52 1.23557e-51 1.93765e-51 2.99172e-51 4.5476e-51 6.80522e-51 1.0025e-50 1.45381e-50 2.0754e-50 2.9166e-50 4.03502e-50 5.49577e-50 7.36983e-50 9.73134e-50 1.2654e-49 1.62063e-49 2.04465e-49 2.54171e-49 3.11393e-49 3.7609e-49 4.47929e-49 5.26283e-49 6.10229e-49 6.98587e-49 7.89965e-49 8.82831e-49 9.75589e-49 1.06666e-48 1.15456e-48 1.23795e-48 1.31572e-48 1.38697e-48 1.45107e-48 1.50762e-48 1.55644e-48 1.59757e-48 1.63121e-48 1.65767e-48 1.67739e-48 1.69086e-48 1.69865e-48 1.70133e-48 1.69949e-48 1.69372e-48 1.68459e-48 1.67266e-48 1.65846e-48 1.64248e-48 1.62522e-48 1.60712e-48 1.58861e-48 1.57011e-48 1.55202e-48 1.5347e-48 1.51853e-48 1.50385e-48 1.49097e-48 1.48018e-48 1.47171e-48 1.46573e-48 1.46236e-48 1.46162e-48 1.46342e-48 1.46756e-48 1.47375e-48 1.48154e-48 1.49039e-48 1.4997e-48 1.50876e-48 1.51691e-48 1.5235e-48 1.52795e-48 1.52985e-48 1.52896e-48 1.52522e-48 1.51879e-48 1.51001e-48 1.49938e-48 1.48752e-48 1.47507e-48 1.46268e-48 1.45093e-48 1.44026e-48 1.43099e-48 1.42327e-48 1.41708e-48 1.41227e-48 1.40858e-48 1.4057e-48 1.4033e-48 1.40106e-48 1.39872e-48 1.39614e-48 1.39325e-48 1.39011e-48 1.38687e-48 1.38381e-48 1.38123e-48 1.37951e-48 1.37904e-48 1.38018e-48 1.38325e-48 1.38853e-48 1.39618e-48 1.40629e-48 1.41885e-48 1.43373e-48 1.45068e-48 1.46936e-48 1.48928e-48 1.50983e-48 1.53026e-48 1.54967e-48 1.56702e-48 1.58113e-48 1.59072e-48 1.59443e-48 1.59091e-48 1.57886e-48 1.55714e-48 1.52488e-48 1.48153e-48 1.42695e-48 1.36145e-48 1.28585e-48 1.20138e-48 1.10973e-48 1.01287e-48 9.13013e-49 8.12425e-49 7.13338e-49 6.17809e-49 5.27614e-49 4.44178e-49 3.68524e-49 3.01262e-49 2.42611e-49 1.92439e-49 1.50326e-49 1.15632e-49 8.75769e-50 6.53033e-50 4.79394e-50 3.46453e-50 2.4648e-50 1.72624e-50 1.19017e-50 8.07809e-51 5.39779e-51 3.55097e-51 2.29998e-51 1.4668e-51 9.21124e-52 5.69632e-52 3.46925e-52 2.08102e-52 1.22958e-52 7.15674e-53 4.1039e-53 2.31869e-53 1.29092e-53 7.08288e-54 3.83023e-54 2.04169e-54 1.07289e-54 5.55863e-55 2.83974e-55 1.43066e-55 7.10872e-56 3.48413e-56 1.68459e-56 8.03608e-57 3.78261e-57 1.75706e-57 8.05526e-58 3.64512e-58 1.62815e-58 7.17551e-59 3.1113e-59 1.30444e-59 4.71986e-60 0 
0 3.47005e-81 1.3909e-80 5.19202e-80 1.91337e-79 6.98785e-79 2.52965e-78 9.07674e-78 3.22792e-77 1.13766e-76 3.97342e-76 1.37516e-75 4.71571e-75 1.6022e-74 5.39297e-74 1.79826e-73 5.93958e-73 1.94315e-72 6.29612e-72 2.02032e-71 6.41972e-71 2.01988e-70 6.29234e-70 1.94063e-69 5.9249e-69 1.79057e-68 5.35595e-68 1.58555e-67 4.64496e-67 1.3465e-66 3.86201e-66 1.09588e-65 3.07624e-65 8.54158e-65 2.34574e-64 6.3709e-64 1.71105e-63 4.5438e-63 1.19297e-62 3.09635e-62 7.94393e-62 2.01438e-61 5.04804e-61 1.25007e-60 3.05862e-60 7.39357e-60 1.76551e-59 4.16417e-59 9.70013e-59 2.23136e-58 5.06821e-58 1.13654e-57 2.51597e-57 5.49756e-57 1.18557e-56 2.52303e-56 5.29795e-56 1.09757e-55 2.24305e-55 4.52147e-55 8.98881e-55 1.7622e-54 3.40631e-54 6.49145e-54 1.21948e-53 2.25804e-53 4.12065e-53 7.41014e-53 1.313e-52 2.29211e-52 3.94178e-52 6.67717e-52 1.11402e-51 1.83043e-51 2.96169e-51 4.7186e-51 7.40194e-51 1.14316e-50 1.73811e-50 2.60156e-50 3.83321e-50 5.55977e-50 7.93804e-50 1.11567e-49 1.54362e-49 2.10254e-49 2.81954e-49 3.72292e-49 4.84075e-49 6.19909e-49 7.81999e-49 9.7194e-49 1.19051e-48 1.4375e-48 1.71161e-48 2.01039e-48 2.33026e-48 2.66667e-48 3.01428e-48 3.36721e-48 3.71938e-48 4.06476e-48 4.39772e-48 4.71324e-48 5.00709e-48 5.27596e-48 5.5175e-48 5.73029e-48 5.91374e-48 6.06803e-48 6.19396e-48 6.29281e-48 6.36626e-48 6.41623e-48 6.44482e-48 6.45422e-48 6.44667e-48 6.42437e-48 6.3895e-48 6.34412e-48 6.29025e-48 6.22975e-48 6.16443e-48 6.09599e-48 6.02604e-48 5.95614e-48 5.88777e-48 5.82238e-48 5.76132e-48 5.70588e-48 5.65726e-48 5.61651e-48 5.58454e-48 5.56201e-48 5.54932e-48 5.54656e-48 5.55341e-48 5.56914e-48 5.59258e-48 5.6221e-48 5.65566e-48 5.69091e-48 5.72528e-48 5.75617e-48 5.78114e-48 5.79805e-48 5.80531e-48 5.80198e-48 5.78789e-48 5.76361e-48 5.73045e-48 5.69032e-48 5.6455e-48 5.59848e-48 5.5517e-48 5.50733e-48 5.4671e-48 5.43217e-48 5.40308e-48 5.37979e-48 5.36171e-48 5.34788e-48 5.33708e-48 5.32806e-48 5.31962e-48 5.31081e-48 5.30103e-48 5.29007e-48 5.27813e-48 5.26584e-48 5.25417e-48 5.24434e-48 5.23777e-48 5.23591e-48 5.24015e-48 5.25174e-48 5.27166e-48 5.30059e-48 5.33886e-48 5.38641e-48 5.44275e-48 5.50701e-48 5.57783e-48 5.65342e-48 5.73148e-48 5.8092e-48 5.88318e-48 5.94949e-48 6.00368e-48 6.04088e-48 6.05593e-48 6.04367e-48 5.99917e-48 5.91808e-48 5.79699e-48 5.63375e-48 5.42778e-48 5.18021e-48 4.89403e-48 4.57397e-48 4.22631e-48 3.85859e-48 3.47917e-48 3.09671e-48 2.71972e-48 2.35606e-48 2.01253e-48 1.6946e-48 1.40621e-48 1.14972e-48 9.25993e-49 7.34563e-49 5.73845e-49 4.41423e-49 3.34325e-49 2.4929e-49 1.82996e-49 1.32239e-49 9.40707e-50 6.5875e-50 4.54111e-50 3.08168e-50 2.05878e-50 1.35409e-50 8.76845e-51 5.59062e-51 3.50985e-51 2.16991e-51 1.32114e-51 7.92235e-52 4.67941e-52 2.72272e-52 1.56074e-52 8.81497e-53 4.90587e-53 2.6907e-53 1.4545e-53 7.75015e-54 4.07103e-54 2.10836e-54 1.07667e-54 5.42206e-55 2.69305e-55 1.31938e-55 6.3767e-56 3.04067e-56 1.43068e-56 6.64297e-57 3.04425e-57 1.37702e-57 6.14824e-58 2.70856e-58 1.17399e-58 4.92033e-59 1.77984e-59 0 
0 1.27654e-80 5.11744e-80 1.91057e-79 7.04199e-79 2.57226e-78 9.3134e-78 3.34238e-77 1.18886e-76 4.19084e-76 1.464e-75 5.06778e-75 1.73821e-74 5.90697e-74 1.98872e-73 6.63279e-73 2.1913e-72 7.17063e-72 2.32397e-71 7.45914e-71 2.37081e-70 7.46141e-70 2.32502e-69 7.17264e-69 2.19049e-68 6.62186e-68 1.98132e-67 5.86721e-67 1.71938e-66 4.9858e-66 1.43049e-65 4.06052e-65 1.14021e-64 3.16705e-64 8.70063e-64 2.36391e-63 6.35115e-63 1.68723e-62 4.43149e-62 1.15064e-61 2.95323e-61 7.49167e-61 1.87818e-60 4.65295e-60 1.13895e-59 2.75435e-59 6.57997e-59 1.55264e-58 3.61837e-58 8.32721e-58 1.89226e-57 4.2453e-57 9.40221e-57 2.05539e-56 4.43459e-56 9.44176e-56 1.98355e-55 4.1112e-55 8.40583e-55 1.69522e-54 3.37173e-54 6.61313e-54 1.27891e-53 2.43835e-53 4.58276e-53 8.48946e-53 1.54991e-52 2.7884e-52 4.94287e-52 8.63238e-52 1.48513e-51 2.51671e-51 4.20047e-51 6.90424e-51 1.11751e-50 1.78101e-50 2.79468e-50 4.31735e-50 6.56598e-50 9.83009e-50 1.4487e-49 2.1016e-49 3.00104e-49 4.21839e-49 5.83696e-49 7.95083e-49 1.06624e-48 1.40783e-48 1.83042e-48 2.34381e-48 2.95625e-48 3.67364e-48 4.49879e-48 5.43076e-48 6.46442e-48 7.59031e-48 8.79479e-48 1.00605e-47 1.13671e-47 1.26924e-47 1.40134e-47 1.53074e-47 1.65534e-47 1.77325e-47 1.88291e-47 1.98311e-47 2.07299e-47 2.15205e-47 2.2201e-47 2.27723e-47 2.32376e-47 2.3602e-47 2.38719e-47 2.40545e-47 2.41578e-47 2.419e-47 2.41594e-47 2.40743e-47 2.39426e-47 2.37721e-47 2.35701e-47 2.33438e-47 2.30996e-47 2.28439e-47 2.25827e-47 2.23218e-47 2.20667e-47 2.18227e-47 2.15949e-47 2.13881e-47 2.12068e-47 2.10549e-47 2.09357e-47 2.08517e-47 2.08045e-47 2.07944e-47 2.08202e-47 2.08792e-47 2.0967e-47 2.10775e-47 2.12031e-47 2.13351e-47 2.14638e-47 2.15795e-47 2.16731e-47 2.17365e-47 2.17639e-47 2.17517e-47 2.16992e-47 2.16087e-47 2.1485e-47 2.13352e-47 2.1168e-47 2.09925e-47 2.08181e-47 2.06526e-47 2.05027e-47 2.03727e-47 2.02645e-47 2.01779e-47 2.01108e-47 2.00595e-47 2.00196e-47 1.99861e-47 1.99547e-47 1.99219e-47 1.98853e-47 1.98443e-47 1.97995e-47 1.97533e-47 1.97094e-47 1.96724e-47 1.96476e-47 1.96403e-47 1.96559e-47 1.9699e-47 1.97734e-47 1.98814e-47 2.00245e-47 2.02023e-47 2.04132e-47 2.06538e-47 2.09191e-47 2.12026e-47 2.14957e-47 2.17879e-47 2.20666e-47 2.23171e-47 2.25229e-47 2.26656e-47 2.2726e-47 2.26845e-47 2.25227e-47 2.22239e-47 2.17753e-47 2.11684e-47 2.04008e-47 1.94766e-47 1.84067e-47 1.72085e-47 1.59057e-47 1.45264e-47 1.3102e-47 1.16651e-47 1.02478e-47 8.8798e-48 7.58682e-48 6.3896e-48 5.30313e-48 4.3365e-48 3.49309e-48 2.77123e-48 2.16504e-48 1.66549e-48 1.26142e-48 9.40557e-49 6.90397e-49 4.98866e-49 3.54839e-49 2.4845e-49 1.71243e-49 1.16187e-49 7.76055e-50 5.10307e-50 3.30369e-50 2.10581e-50 1.32168e-50 8.16856e-51 4.97183e-51 2.98041e-51 1.7598e-51 1.02357e-51 5.86526e-52 3.3114e-52 1.84221e-52 1.00999e-52 5.45745e-53 2.90676e-53 1.52624e-53 7.90101e-54 4.03308e-54 2.03019e-54 1.00793e-54 4.936e-55 2.3846e-55 1.13659e-55 5.34554e-56 2.48101e-56 1.13649e-56 5.13857e-57 2.29337e-57 1.00991e-57 4.37557e-58 1.83318e-58 6.62932e-59 0 
0 4.65375e-80 1.86587e-79 6.96727e-79 2.56844e-78 9.3835e-78 3.39811e-77 1.21974e-76 4.33934e-76 1.52996e-75 5.34576e-75 1.85088e-74 6.34975e-74 2.15832e-73 7.26814e-73 2.42465e-72 8.01233e-72 2.62254e-71 8.50171e-71 2.72947e-70 8.67765e-70 2.73178e-69 8.51479e-69 2.62756e-68 8.02682e-68 2.42724e-67 7.26478e-67 2.15197e-66 6.30836e-66 1.82989e-65 5.25196e-65 1.49131e-64 4.18915e-64 1.164e-63 3.19895e-63 8.69461e-63 2.33689e-62 6.21052e-62 1.63184e-61 4.23879e-61 1.08837e-60 2.7621e-60 6.9276e-60 1.71696e-59 4.20461e-59 1.01726e-58 2.43126e-58 5.73952e-58 1.33819e-57 3.08109e-57 7.00469e-57 1.57225e-56 3.48376e-56 7.61943e-56 1.64471e-55 3.50348e-55 7.36376e-55 1.527e-54 3.12364e-54 6.30258e-54 1.25417e-53 2.46105e-53 4.76169e-53 9.08292e-53 1.7079e-52 3.16532e-52 5.78154e-52 1.04061e-51 1.84546e-51 3.22437e-51 5.54958e-51 9.40821e-51 1.57088e-50 2.583e-50 4.18229e-50 6.66773e-50 1.0466e-49 1.61732e-49 2.46034e-49 3.68435e-49 5.43094e-49 7.88005e-49 1.12543e-48 1.58215e-48 2.18941e-48 2.98247e-48 3.99967e-48 5.28093e-48 6.86571e-48 8.79048e-48 1.10858e-47 1.37735e-47 1.68633e-47 2.03513e-47 2.42174e-47 2.84255e-47 3.29237e-47 3.76464e-47 4.2517e-47 4.7452e-47 5.23653e-47 5.71724e-47 6.17948e-47 6.61633e-47 7.02203e-47 7.39215e-47 7.72363e-47 8.01471e-47 8.26481e-47 8.47439e-47 8.64473e-47 8.77778e-47 8.87596e-47 8.94202e-47 8.9789e-47 8.98967e-47 8.9774e-47 8.94512e-47 8.89578e-47 8.83224e-47 8.75718e-47 8.67317e-47 8.58267e-47 8.48796e-47 8.39128e-47 8.29472e-47 8.20033e-47 8.11007e-47 8.02582e-47 7.94934e-47 7.88228e-47 7.82611e-47 7.78206e-47 7.75105e-47 7.73366e-47 7.72998e-47 7.73961e-47 7.76154e-47 7.79414e-47 7.83516e-47 7.8818e-47 7.93079e-47 7.97858e-47 8.02156e-47 8.05633e-47 8.07994e-47 8.09017e-47 8.08574e-47 8.06638e-47 8.03291e-47 7.98715e-47 7.93173e-47 7.86984e-47 7.80495e-47 7.74042e-47 7.67927e-47 7.62389e-47 7.57587e-47 7.53597e-47 7.50408e-47 7.4794e-47 7.46057e-47 7.44589e-47 7.4336e-47 7.42204e-47 7.40991e-47 7.39636e-47 7.38109e-47 7.36443e-47 7.34723e-47 7.33086e-47 7.31704e-47 7.30772e-47 7.30494e-47 7.31064e-47 7.32654e-47 7.35403e-47 7.39406e-47 7.44709e-47 7.51305e-47 7.5913e-47 7.68063e-47 7.77924e-47 7.88467e-47 7.9938e-47 8.10276e-47 8.20691e-47 8.30083e-47 8.37836e-47 8.43271e-47 8.45673e-47 8.44312e-47 8.38493e-47 8.27595e-47 8.11127e-47 7.88769e-47 7.60419e-47 7.26216e-47 6.86558e-47 6.4209e-47 5.93682e-47 5.4238e-47 4.89353e-47 4.35819e-47 3.82978e-47 3.31941e-47 2.83675e-47 2.38962e-47 1.98367e-47 1.62235e-47 1.30699e-47 1.037e-47 8.10214e-48 6.23292e-48 4.72074e-48 3.51987e-48 2.58355e-48 1.86666e-48 1.32759e-48 9.29422e-49 6.40492e-49 4.34488e-49 2.90147e-49 1.90746e-49 1.23455e-49 7.86702e-50 4.93612e-50 3.04979e-50 1.85565e-50 1.112e-50 6.56351e-51 3.8162e-51 2.18591e-51 1.23363e-51 6.86022e-52 3.75955e-52 2.03062e-52 1.0811e-52 5.67404e-53 2.93605e-53 1.49806e-53 7.53769e-54 3.74061e-54 1.83102e-54 8.84184e-55 4.2125e-55 1.98033e-55 9.18723e-56 4.2066e-56 1.90117e-56 8.48136e-57 3.73329e-57 1.61683e-57 6.77126e-58 2.44797e-58 0 
0 1.68164e-79 6.74333e-79 2.51841e-78 9.28561e-78 3.39301e-77 1.22896e-76 4.41215e-76 1.56998e-75 5.53657e-75 1.93491e-74 6.70074e-74 2.29932e-73 7.81731e-73 2.6331e-72 8.78613e-72 2.90413e-71 9.50804e-71 3.08311e-70 9.90095e-70 3.14863e-69 9.9149e-69 3.09131e-68 9.54222e-68 2.9159e-67 8.82019e-67 2.64075e-66 7.82497e-66 2.2946e-65 6.65831e-65 1.91167e-64 5.43019e-64 1.52591e-63 4.24149e-63 1.16611e-62 3.17065e-62 8.52525e-62 2.26658e-61 5.95797e-61 1.54826e-60 3.97707e-60 1.00974e-59 2.53363e-59 6.28223e-59 1.53913e-58 3.72545e-58 8.90798e-58 2.10391e-57 4.90764e-57 1.13049e-56 2.57136e-56 5.7744e-56 1.28011e-55 2.80116e-55 6.04952e-55 1.28928e-54 2.71123e-54 5.62501e-54 1.15124e-53 2.32403e-53 4.62698e-53 9.08407e-53 1.75848e-52 3.35596e-52 6.31344e-52 1.17066e-51 2.13927e-51 3.85225e-51 6.83488e-51 1.19472e-50 2.05717e-50 3.489e-50 5.82791e-50 9.58661e-50 1.55281e-49 2.47648e-49 3.8885e-49 6.01077e-49 9.14646e-49 1.37003e-48 2.01996e-48 2.93145e-48 4.18739e-48 5.88747e-48 8.14796e-48 1.11e-47 1.4886e-47 1.96542e-47 2.55507e-47 3.27102e-47 4.12453e-47 5.12349e-47 6.27139e-47 7.56643e-47 9.00094e-47 1.05612e-46 1.22276e-46 1.39755e-46 1.57764e-46 1.7599e-46 1.94114e-46 2.11824e-46 2.28829e-46 2.44877e-46 2.59757e-46 2.73311e-46 2.85429e-46 2.96051e-46 3.05161e-46 3.12779e-46 3.18957e-46 3.23768e-46 3.27305e-46 3.29669e-46 3.3097e-46 3.31321e-46 3.30834e-46 3.29619e-46 3.27786e-46 3.25436e-46 3.22668e-46 3.19577e-46 3.1625e-46 3.12771e-46 3.09221e-46 3.05677e-46 3.02214e-46 2.98903e-46 2.95812e-46 2.93008e-46 2.90549e-46 2.88489e-46 2.86875e-46 2.85739e-46 2.85103e-46 2.84971e-46 2.85327e-46 2.86136e-46 2.87336e-46 2.88847e-46 2.90564e-46 2.92368e-46 2.94128e-46 2.95711e-46 2.96992e-46 2.97864e-46 2.98244e-46 2.98084e-46 2.97375e-46 2.96148e-46 2.9447e-46 2.92436e-46 2.90165e-46 2.87785e-46 2.85418e-46 2.83177e-46 2.81148e-46 2.7939e-46 2.77931e-46 2.76766e-46 2.75866e-46 2.7518e-46 2.74646e-46 2.74198e-46 2.73776e-46 2.73331e-46 2.72833e-46 2.7227e-46 2.71655e-46 2.7102e-46 2.70415e-46 2.69902e-46 2.69556e-46 2.6945e-46 2.69656e-46 2.70238e-46 2.71246e-46 2.72717e-46 2.74666e-46 2.77093e-46 2.79973e-46 2.83263e-46 2.86898e-46 2.90787e-46 2.94818e-46 2.98849e-46 3.02711e-46 3.06205e-46 3.09104e-46 3.1116e-46 3.12107e-46 3.11676e-46 3.09608e-46 3.05672e-46 2.99683e-46 2.91519e-46 2.81139e-46 2.6859e-46 2.54015e-46 2.37649e-46 2.19811e-46 2.00887e-46 1.81308e-46 1.61525e-46 1.41983e-46 1.23096e-46 1.05224e-46 8.86584e-47 7.36115e-47 6.02134e-47 4.85153e-47 3.84971e-47 3.00803e-47 2.31414e-47 1.75272e-47 1.30682e-47 9.5914e-48 6.92936e-48 4.92767e-48 3.44927e-48 2.37659e-48 1.61187e-48 1.07616e-48 7.07301e-49 4.5766e-49 2.91553e-49 1.82877e-49 1.12954e-49 6.87033e-50 4.11557e-50 2.42828e-50 1.41132e-50 8.08078e-51 4.55858e-51 2.53396e-51 1.38808e-51 7.49406e-52 3.98806e-52 2.09217e-52 1.08212e-52 5.51878e-53 2.77559e-53 1.37677e-53 6.7362e-54 3.25137e-54 1.54834e-54 7.27553e-55 3.37377e-55 1.54407e-55 6.97529e-56 3.11038e-56 1.36852e-56 5.92429e-57 2.48011e-57 8.96346e-58 0 
0 6.02284e-79 2.41551e-78 9.02269e-78 3.32735e-77 1.21605e-76 4.40545e-76 1.58194e-75 5.63018e-75 1.98591e-74 6.94182e-74 2.40455e-73 8.25294e-73 2.80653e-72 9.45552e-72 3.15591e-71 1.04341e-70 3.41698e-70 1.1083e-69 3.56014e-69 1.13249e-68 3.56721e-68 1.11253e-67 3.4352e-67 1.05006e-66 3.17729e-66 9.51587e-66 2.82066e-65 8.27419e-65 2.40179e-64 6.89826e-64 1.9602e-63 5.51035e-63 1.53226e-62 4.21427e-62 1.14632e-61 3.08348e-61 8.20134e-61 2.15672e-60 5.60694e-60 1.4409e-59 3.65996e-59 9.18765e-59 2.27915e-58 5.58644e-58 1.35283e-57 3.23632e-57 7.64731e-57 1.78471e-56 4.11318e-56 9.36028e-56 2.10306e-55 4.66459e-55 1.02123e-54 2.20664e-54 4.70527e-54 9.89985e-54 2.055e-53 4.20805e-53 8.4993e-53 1.69303e-52 3.32563e-52 6.44102e-52 1.22986e-51 2.31487e-51 4.29448e-51 7.85161e-51 1.41455e-50 2.51098e-50 4.39116e-50 7.56452e-50 1.28352e-49 2.14486e-49 3.52962e-49 5.71939e-49 9.12487e-49 1.43326e-48 2.21621e-48 3.37336e-48 5.05423e-48 7.45369e-48 1.08193e-47 1.54574e-47 2.17361e-47 3.00846e-47 4.09868e-47 5.49679e-47 7.25731e-47 9.43397e-47 1.20761e-46 1.52248e-46 1.89085e-46 2.31392e-46 2.79093e-46 3.31896e-46 3.89281e-46 4.50518e-46 5.14688e-46 5.8073e-46 6.47492e-46 7.13794e-46 7.78492e-46 8.40526e-46 8.98975e-46 9.53085e-46 1.00228e-45 1.04619e-45 1.08461e-45 1.11749e-45 1.14493e-45 1.16712e-45 1.18435e-45 1.19696e-45 1.20533e-45 1.20987e-45 1.21097e-45 1.20905e-45 1.20452e-45 1.19776e-45 1.18914e-45 1.17902e-45 1.16773e-45 1.1556e-45 1.14293e-45 1.13001e-45 1.11711e-45 1.10451e-45 1.09246e-45 1.08122e-45 1.07102e-45 1.06208e-45 1.05459e-45 1.04872e-45 1.0446e-45 1.04229e-45 1.04182e-45 1.04313e-45 1.04609e-45 1.05047e-45 1.05599e-45 1.06226e-45 1.06885e-45 1.07527e-45 1.08106e-45 1.08574e-45 1.08893e-45 1.09033e-45 1.08976e-45 1.08719e-45 1.08273e-45 1.07662e-45 1.06922e-45 1.06096e-45 1.0523e-45 1.04369e-45 1.03554e-45 1.02817e-45 1.02179e-45 1.0165e-45 1.01228e-45 1.00903e-45 1.00655e-45 1.00462e-45 1.00301e-45 1.00148e-45 9.99862e-46 9.98045e-46 9.9599e-46 9.93739e-46 9.91412e-46 9.89191e-46 9.87309e-46 9.86031e-46 9.85631e-46 9.86369e-46 9.8848e-46 9.9215e-46 9.97507e-46 1.00461e-45 1.01347e-45 1.02398e-45 1.036e-45 1.04929e-45 1.06352e-45 1.07829e-45 1.09309e-45 1.1073e-45 1.12019e-45 1.13095e-45 1.13867e-45 1.14237e-45 1.14107e-45 1.13381e-45 1.11974e-45 1.09816e-45 1.06862e-45 1.03095e-45 9.85304e-46 9.32192e-46 8.72466e-46 8.07283e-46 7.38054e-46 6.66357e-46 5.9385e-46 5.22169e-46 4.5284e-46 3.87195e-46 3.26315e-46 2.70989e-46 2.21705e-46 1.78657e-46 1.41781e-46 1.1079e-46 8.52368e-47 6.45583e-47 4.81332e-47 3.53252e-47 2.55186e-47 1.81448e-47 1.26991e-47 8.74824e-48 5.9321e-48 3.9596e-48 2.60177e-48 1.68301e-48 1.07184e-48 6.72096e-49 4.14978e-49 2.52317e-49 1.51091e-49 8.91121e-50 5.17712e-50 2.96304e-50 1.67082e-50 9.28349e-51 5.08315e-51 2.7431e-51 1.45911e-51 7.6511e-52 3.95548e-52 2.01634e-52 1.01361e-52 5.02545e-53 2.45767e-53 1.18568e-53 5.64369e-54 2.65069e-54 1.22859e-54 5.62024e-55 2.53775e-55 1.1311e-55 4.97441e-56 2.15247e-56 9.00732e-57 3.25434e-57 0 
0 2.13788e-78 8.57543e-78 3.20377e-77 1.18169e-76 4.31959e-76 1.56519e-75 5.62152e-75 2.00114e-74 7.06009e-74 2.46843e-73 8.55226e-73 2.93602e-72 9.98679e-72 3.3655e-71 1.12357e-70 3.71574e-70 1.21717e-69 3.949e-69 1.26888e-68 4.03753e-68 1.27215e-67 3.96878e-67 1.22584e-66 3.7483e-66 1.13455e-65 3.39908e-65 1.00789e-64 2.95762e-64 8.58833e-64 2.4676e-63 7.01456e-63 1.97263e-62 5.48747e-62 1.50986e-61 4.10864e-61 1.10564e-60 2.94201e-60 7.74002e-60 2.0131e-59 5.17571e-59 1.31525e-58 3.30323e-58 8.19809e-58 2.0104e-57 4.87083e-57 1.1658e-56 2.75612e-56 6.4354e-56 1.48391e-55 3.37865e-55 7.59506e-55 1.68547e-54 3.69201e-54 7.98181e-54 1.70289e-53 3.58479e-53 7.44527e-53 1.5254e-52 3.08263e-52 6.1438e-52 1.20748e-51 2.33987e-51 4.47018e-51 8.41827e-51 1.56255e-50 2.85828e-50 5.15211e-50 9.15004e-50 1.60092e-49 2.75916e-49 4.68378e-49 7.83041e-49 1.28913e-48 2.08975e-48 3.33532e-48 5.24072e-48 8.10632e-48 1.23427e-47 1.84979e-47 2.72864e-47 3.96158e-47 5.66086e-47 7.96141e-47 1.10204e-46 1.5015e-46 2.01373e-46 2.65863e-46 3.45579e-46 4.42315e-46 5.57553e-46 6.9231e-46 8.46997e-46 1.0213e-45 1.2141e-45 1.42346e-45 1.64667e-45 1.88034e-45 2.12054e-45 2.36306e-45 2.6036e-45 2.83797e-45 3.06234e-45 3.27339e-45 3.46844e-45 3.64546e-45 3.80315e-45 3.94082e-45 4.0584e-45 4.15628e-45 4.23524e-45 4.29635e-45 4.34086e-45 4.37017e-45 4.38575e-45 4.38906e-45 4.3816e-45 4.3648e-45 4.34006e-45 4.3087e-45 4.27199e-45 4.23114e-45 4.18728e-45 4.1415e-45 4.09484e-45 4.04829e-45 4.00283e-45 3.95938e-45 3.91884e-45 3.88206e-45 3.84982e-45 3.82283e-45 3.80168e-45 3.78682e-45 3.77853e-45 3.77687e-45 3.78164e-45 3.79236e-45 3.80825e-45 3.82823e-45 3.85093e-45 3.87478e-45 3.89806e-45 3.91902e-45 3.936e-45 3.94758e-45 3.95268e-45 3.95067e-45 3.94142e-45 3.92534e-45 3.90331e-45 3.87661e-45 3.8468e-45 3.81556e-45 3.78452e-45 3.75515e-45 3.7286e-45 3.70564e-45 3.68661e-45 3.67147e-45 3.6598e-45 3.65093e-45 3.64404e-45 3.63825e-45 3.63276e-45 3.62694e-45 3.62037e-45 3.61292e-45 3.60476e-45 3.5963e-45 3.58822e-45 3.58136e-45 3.57669e-45 3.57519e-45 3.57782e-45 3.58541e-45 3.59865e-45 3.618e-45 3.6437e-45 3.67573e-45 3.71379e-45 3.75734e-45 3.80552e-45 3.85719e-45 3.91088e-45 3.96475e-45 4.01661e-45 4.06385e-45 4.1035e-45 4.13226e-45 4.14661e-45 4.14295e-45 4.1178e-45 4.068e-45 3.991e-45 3.88509e-45 3.74957e-45 3.58498e-45 3.39311e-45 3.17698e-45 2.9408e-45 2.68965e-45 2.42927e-45 2.1657e-45 1.90492e-45 1.6525e-45 1.41334e-45 1.19141e-45 9.89623e-46 8.09788e-46 6.52651e-46 5.17995e-46 4.04804e-46 3.11449e-46 2.35893e-46 1.75871e-46 1.29065e-46 9.32263e-47 6.62795e-47 4.638e-47 3.19446e-47 2.16567e-47 1.44521e-47 9.49362e-48 6.13934e-48 3.90867e-48 2.45011e-48 1.51226e-48 9.1915e-49 5.50184e-49 3.24364e-49 1.88366e-49 1.07762e-49 6.07387e-50 3.37328e-50 1.84618e-50 9.95821e-51 5.29448e-51 2.77493e-51 1.4339e-51 7.30589e-52 3.67088e-52 1.81911e-52 8.89192e-53 4.28775e-53 2.03992e-53 9.57627e-54 4.43643e-54 2.02849e-54 9.15504e-55 4.07856e-55 1.79285e-55 7.75426e-56 3.24352e-56 1.17151e-56 0 
0 7.52049e-78 3.01709e-77 1.12739e-76 4.1591e-76 1.52063e-75 5.51108e-75 1.97977e-74 7.04911e-74 2.4875e-73 8.6991e-73 3.01465e-72 1.03519e-71 3.52206e-71 1.18722e-70 3.96458e-70 1.31147e-69 4.29722e-69 1.3946e-68 4.48238e-68 1.42671e-67 4.49669e-67 1.40329e-66 4.33577e-66 1.32621e-65 4.01557e-65 1.20348e-64 3.56981e-64 1.04793e-63 3.04411e-63 8.74967e-63 2.48821e-62 7.00012e-62 1.94808e-61 5.36231e-61 1.45981e-60 3.93008e-60 1.04622e-59 2.75368e-59 7.16531e-59 1.84306e-58 4.68581e-58 1.1774e-57 2.92353e-57 7.17286e-57 1.73872e-56 4.16363e-56 9.84848e-56 2.30077e-55 5.30803e-55 1.20921e-54 2.71971e-54 6.03877e-54 1.32351e-53 2.86289e-53 6.11124e-53 1.28721e-52 2.6749e-52 5.48345e-52 1.10875e-51 2.21102e-51 4.34786e-51 8.43004e-51 1.61139e-50 3.03624e-50 5.63873e-50 1.03201e-49 1.86119e-49 3.30714e-49 5.78919e-49 9.98245e-49 1.69536e-48 2.83563e-48 4.6704e-48 7.57415e-48 1.20934e-47 1.90093e-47 2.94138e-47 4.47997e-47 6.71606e-47 9.90949e-47 1.43903e-46 2.05668e-46 2.89294e-46 4.00495e-46 5.457e-46 7.31878e-46 9.66243e-46 1.25588e-45 1.60724e-45 2.02564e-45 2.51469e-45 3.07574e-45 3.70753e-45 4.40585e-45 5.16351e-45 5.97049e-45 6.81435e-45 7.68081e-45 8.5545e-45 9.41978e-45 1.02616e-44 1.10662e-44 1.18217e-44 1.25186e-44 1.31498e-44 1.3711e-44 1.41998e-44 1.46164e-44 1.49622e-44 1.52404e-44 1.54549e-44 1.56103e-44 1.57118e-44 1.57645e-44 1.57739e-44 1.57451e-44 1.56833e-44 1.55935e-44 1.54803e-44 1.53483e-44 1.52016e-44 1.50444e-44 1.48804e-44 1.47133e-44 1.45468e-44 1.43841e-44 1.42287e-44 1.40838e-44 1.39522e-44 1.3837e-44 1.37405e-44 1.36649e-44 1.36119e-44 1.35824e-44 1.35766e-44 1.35938e-44 1.36324e-44 1.36894e-44 1.37612e-44 1.38427e-44 1.39283e-44 1.40119e-44 1.40872e-44 1.41483e-44 1.419e-44 1.42084e-44 1.42014e-44 1.41684e-44 1.4111e-44 1.40322e-44 1.39366e-44 1.383e-44 1.37182e-44 1.36073e-44 1.35023e-44 1.34075e-44 1.33255e-44 1.32577e-44 1.32038e-44 1.31623e-44 1.31309e-44 1.31064e-44 1.30859e-44 1.30664e-44 1.30456e-44 1.3022e-44 1.29953e-44 1.29659e-44 1.29354e-44 1.29062e-44 1.28815e-44 1.28645e-44 1.2859e-44 1.28682e-44 1.28953e-44 1.29427e-44 1.3012e-44 1.31041e-44 1.32191e-44 1.33557e-44 1.35122e-44 1.36854e-44 1.38715e-44 1.4065e-44 1.42596e-44 1.44474e-44 1.46191e-44 1.47641e-44 1.48705e-44 1.49257e-44 1.49166e-44 1.48306e-44 1.46562e-44 1.43841e-44 1.40079e-44 1.35248e-44 1.29365e-44 1.22493e-44 1.1474e-44 1.06254e-44 9.72194e-45 8.78421e-45 7.83405e-45 6.89311e-45 5.98163e-45 5.11742e-45 4.31497e-45 3.58495e-45 2.93404e-45 2.36506e-45 1.87732e-45 1.4672e-45 1.12889e-45 8.55032e-46 6.37456e-46 4.67773e-46 3.37848e-46 2.40163e-46 1.68029e-46 1.15709e-46 7.84269e-47 5.2323e-47 3.43616e-47 2.22143e-47 1.41383e-47 8.85937e-48 5.46617e-48 3.32105e-48 1.98711e-48 1.17102e-48 6.79747e-49 3.88702e-49 2.18987e-49 1.21563e-49 6.64994e-50 3.58521e-50 1.90522e-50 9.98064e-51 5.15475e-51 2.6251e-51 1.31833e-51 6.52971e-52 3.19014e-52 1.53753e-52 7.31119e-53 3.43047e-53 1.58845e-53 7.25934e-54 3.27468e-54 1.45815e-54 6.40663e-55 2.76964e-55 1.15801e-55 4.18113e-56 0 