# vtk DataFile Version 3.0
Gray-Scott Simulation Output
ASCII
DATASET STRUCTURED_POINTS
DIMENSIONS 256 256 1
SPACING 1.0 1.0 1.0
ORIGIN 0 0 0
POINT_DATA 65536
SCALARS u double
LOOKUP_TABLE default
0 0 0 0 0 0 0 0 0 0 0 0 0 0 0 0 0 0 0 0 0 0 0 0 0 0 0 0 0 0 0 0 0 0 0 0 0 0 0 0 0 0 0 0 0 0 0 0 0 0 0 0 0 0 0 0 0 0 0 0 0 0 0 0 0 0 0 0 0 0 0 0 0 0 0 0 0 0 0 0 0 0 0 0 0 0 0 0 0 0 0 0 0 0 0 0 0 0 0 0 0 0 0 0 0 0 0 0 0 0 0 0 0 0 0 0 0 0 0 0 0 0 0 0 0 0 0 0 0 0 0 0 0 0 0 0 0 0 0 0 0 0 0 0 0 0 0 0 0 0 0 0 0 0 0 0 0 0 0 0 0 0 0 0 0 0 0 0 0 0 0 0 0 0 0 0 0 0 0 0 0 0 0 0 0 0 0 0 0 0 0 0 0 0 0 0 0 0 0 0 0 0 0 0 0 0 0 0 0 0 0 0 0 0 0 0 0 0 0 0 0 0 0 0 0 0 0 0 0 0 0 0 0 0 0 0 0 0 0 0 0 0 0 0 0 0 0 0 0 0 0 0 0 0 0 0 
0 6.24202e-122 5.14562e-121 4.13926e-120 3.29531e-119 2.59661e-118 2.02495e-117 1.56271e-116 1.19331e-115 9.01558e-115 6.73841e-114 4.98193e-113 3.64307e-112 2.63463e-111 1.88411e-110 1.33222e-109 9.31273e-109 6.43518e-108 4.39515e-107 2.96662e-106 1.97865e-105 1.30389e-104 8.48824e-104 5.45812e-103 3.46622e-102 2.17368e-101 1.34586e-100 8.22631e-100 4.963e-99 2.95495e-98 1.73603e-97 1.00622e-96 5.75287e-96 3.24385e-95 1.80363e-94 9.88698e-94 5.34237e-93 2.84496e-92 1.49282e-91 7.71693e-91 3.92915e-90 1.97006e-89 9.7252e-89 4.72563e-88 2.25979e-87 1.06322e-86 4.92068e-86 2.23959e-85 1.00219e-84 4.40811e-84 1.90533e-83 8.09065e-83 3.37423e-82 1.38173e-81 5.55391e-81 2.19067e-80 8.4766e-80 3.21661e-79 1.19665e-78 4.36298e-78 1.55847e-77 5.45208e-77 1.86731e-76 6.25897e-76 2.05236e-75 6.58118e-75 2.06289e-74 6.31824e-74 1.89008e-73 5.52002e-73 1.57322e-72 4.37351e-72 1.1854e-71 3.13106e-71 8.05573e-71 2.01788e-70 4.91874e-70 1.16618e-69 2.68796e-69 6.02014e-69 1.30951e-68 2.76515e-68 5.66545e-68 1.12579e-67 2.16872e-67 4.04851e-67 7.32105e-67 1.28204e-66 2.17351e-66 3.5668e-66 5.66508e-66 8.70857e-66 1.29586e-65 1.86709e-65 2.60593e-65 3.52566e-65 4.62786e-65 5.90025e-65 7.31664e-65 8.83924e-65 1.04229e-64 1.20207e-64 1.35885e-64 1.50894e-64 1.64949e-64 1.77846e-64 1.8945e-64 1.99667e-64 2.08437e-64 2.15717e-64 2.21483e-64 2.25735e-64 2.28504e-64 2.29862e-64 2.29926e-64 2.28857e-64 2.26858e-64 2.2415e-64 2.20956e-64 2.17464e-64 2.13811e-64 2.10063e-64 2.0623e-64 2.02284e-64 1.982e-64 1.93987e-64 1.89711e-64 1.85495e-64 1.81491e-64 1.77848e-64 1.74676e-64 1.72026e-64 1.69899e-64 1.68269e-64 1.67121e-64 1.66487e-64 1.6646e-64 1.67179e-64 1.68791e-64 1.71394e-64 1.74989e-64 1.79433e-64 1.84433e-64 1.89561e-64 1.94303e-64 1.98124e-64 2.00544e-64 2.01213e-64 1.99966e-64 1.96858e-64 1.92167e-64 1.86363e-64 1.80041e-64 1.73834e-64 1.68321e-64 1.63941e-64 1.60935e-64 1.59332e-64 1.58969e-64 1.59553e-64 1.60725e-64 1.62139e-64 1.63502e-64 1.64608e-64 1.65329e-64 1.65601e-64 1.65405e-64 1.64746e-64 1.63655e-64 1.62187e-64 1.60439e-64 1.58553e-64 1.56716e-64 1.55153e-64 1.54092e-64 1.53738e-64 1.54231e-64 1.55618e-64 1.57847e-64 1.6078e-64 1.64233e-64 1.68025e-64 1.72032e-64 1.7621e-64 1.80601e-64 1.85298e-64 1.90388e-64 1.95895e-64 2.01715e-64 2.0759e-64 2.13096e-64 2.17669e-64 2.20658e-64 2.21395e-64 2.19276e-64 2.1385e-64 2.04889e-64 1.92445e-64 1.76864e-64 1.5877e-64 1.39002e-64 1.18522e-64 9.83034e-65 7.92265e-65 6.19879e-65 4.7048e-65 3.46179e-65 2.46813e-65 1.70443e-65 1.13979e-65 7.37972e-66 4.62597e-66 2.80757e-66 1.64997e-66 9.39113e-67 5.17804e-67 2.7666e-67 1.43288e-67 7.19647e-68 3.5063e-68 1.658e-68 7.61232e-69 3.39506e-69 1.47156e-69 6.20169e-70 2.54245e-70 1.0144e-70 3.9408e-71 1.49136e-71 5.50051e-72 1.97808e-72 6.93909e-73 2.37557e-73 7.94016e-74 2.59221e-74 8.2693e-75 2.57872e-75 7.86402e-76 2.34618e-76 6.85037e-77 1.95823e-77 5.48236e-78 1.50374e-78 4.04232e-79 1.06532e-79 2.75338e-80 6.98105e-81 1.73691e-81 4.24193e-82 1.0172e-82 2.39567e-83 5.54297e-84 1.26018e-84 2.81068e-85 5.9047e-86 0 
0 5.14146e-121 4.23732e-120 3.40773e-119 2.71224e-118 2.13664e-117 1.66583e-116 1.28524e-115 9.81186e-115 7.41116e-114 5.53788e-113 4.09335e-112 2.99257e-111 2.16368e-110 1.54694e-109 1.09356e-108 7.64263e-108 5.2799e-107 3.60528e-106 2.43292e-105 1.62232e-104 1.06884e-103 6.95653e-103 4.47222e-102 2.8395e-101 1.78028e-100 1.10205e-99 6.73464e-99 4.06222e-98 2.41814e-97 1.42036e-96 8.23091e-96 4.70495e-95 2.65245e-94 1.47452e-93 8.08138e-93 4.36592e-92 2.32455e-91 1.21953e-90 6.30309e-90 3.20872e-89 1.60857e-88 7.9394e-88 3.85726e-87 1.84424e-86 8.67575e-86 4.01461e-85 1.82694e-84 8.17411e-84 3.59488e-83 1.55362e-82 6.5963e-82 2.75066e-81 1.12624e-80 4.52645e-80 1.7852e-79 6.90692e-79 2.6207e-78 9.74861e-78 3.554e-77 1.26939e-76 4.4404e-76 1.52069e-75 5.09677e-75 1.67116e-74 5.35844e-74 1.67952e-73 5.14377e-73 1.53867e-72 4.49352e-72 1.28061e-71 3.55995e-71 9.64865e-71 2.54849e-70 6.55673e-70 1.64237e-69 4.00336e-69 9.49151e-69 2.18771e-68 4.89975e-68 1.0658e-67 2.25056e-67 4.61117e-67 9.16307e-67 1.76519e-66 3.29526e-66 5.95903e-66 1.04354e-65 1.76921e-65 2.90338e-65 4.61145e-65 7.08898e-65 1.05487e-64 1.51988e-64 2.12133e-64 2.87002e-64 3.76721e-64 4.80288e-64 5.95569e-64 7.1948e-64 8.48348e-64 9.78336e-64 1.10587e-63 1.22793e-63 1.34219e-63 1.44701e-63 1.54128e-63 1.62427e-63 1.69548e-63 1.75458e-63 1.80137e-63 1.83586e-63 1.85832e-63 1.86933e-63 1.86984e-63 1.86116e-63 1.84493e-63 1.82296e-63 1.79704e-63 1.76871e-63 1.73907e-63 1.70866e-63 1.67756e-63 1.64554e-63 1.61239e-63 1.57819e-63 1.54349e-63 1.50927e-63 1.47677e-63 1.44721e-63 1.42147e-63 1.39997e-63 1.38272e-63 1.3695e-63 1.3602e-63 1.35508e-63 1.35488e-63 1.36074e-63 1.37384e-63 1.39499e-63 1.42418e-63 1.46026e-63 1.50084e-63 1.54246e-63 1.58093e-63 1.61192e-63 1.63154e-63 1.63695e-63 1.62679e-63 1.60154e-63 1.56344e-63 1.5163e-63 1.46497e-63 1.41457e-63 1.36982e-63 1.33427e-63 1.30988e-63 1.29688e-63 1.29396e-63 1.29872e-63 1.30827e-63 1.31977e-63 1.33087e-63 1.33987e-63 1.34574e-63 1.34797e-63 1.34638e-63 1.34104e-63 1.33218e-63 1.32025e-63 1.30604e-63 1.2907e-63 1.27575e-63 1.26301e-63 1.25435e-63 1.25142e-63 1.25537e-63 1.26658e-63 1.28464e-63 1.30842e-63 1.33642e-63 1.3672e-63 1.39972e-63 1.43364e-63 1.46929e-63 1.50743e-63 1.54876e-63 1.59346e-63 1.64071e-63 1.68839e-63 1.73307e-63 1.77017e-63 1.7944e-63 1.80033e-63 1.78307e-63 1.73893e-63 1.66607e-63 1.5649e-63 1.43823e-63 1.29113e-63 1.13041e-63 9.63897e-64 7.99501e-64 6.44375e-64 5.04187e-64 3.82686e-64 2.8159e-64 2.00769e-64 1.38651e-64 9.27212e-65 6.0035e-65 3.76337e-65 2.28409e-65 1.34235e-65 7.6404e-66 4.2128e-66 2.25092e-66 1.16582e-66 5.85527e-67 2.85289e-67 1.34905e-67 6.19402e-68 2.76257e-68 1.19744e-68 5.04664e-69 2.06899e-69 8.25528e-70 3.2072e-70 1.21379e-70 4.47698e-71 1.61009e-71 5.64851e-72 1.93387e-72 6.46422e-73 2.11051e-73 6.73317e-74 2.09985e-74 6.40423e-75 1.91083e-75 5.57975e-76 1.59517e-76 4.46637e-77 1.2252e-77 3.29392e-78 8.68188e-79 2.24414e-79 5.69061e-80 1.41602e-80 3.45871e-81 8.295e-82 1.95388e-82 4.52143e-83 1.02809e-83 2.29337e-84 4.8186e-85 0 
0 4.13241e-120 3.40484e-119 2.73753e-118 2.17826e-117 1.71553e-116 1.33717e-115 1.03141e-114 7.87205e-114 5.94447e-113 4.44081e-112 3.28163e-111 2.39855e-110 1.73377e-109 1.23927e-108 8.7585e-108 6.11966e-107 4.22676e-106 2.88549e-105 1.94673e-104 1.29782e-103 8.54853e-103 5.56256e-102 3.57526e-101 2.26951e-100 1.4226e-99 8.80443e-99 5.37925e-98 3.24399e-97 1.93066e-96 1.1338e-95 6.56895e-95 3.75419e-94 2.11604e-93 1.17609e-92 6.44458e-92 3.48099e-91 1.85305e-90 9.71991e-90 5.02279e-89 2.55652e-88 1.2814e-87 6.3235e-87 3.0717e-86 1.46841e-85 6.90669e-85 3.19551e-84 1.45397e-83 6.50447e-83 2.8602e-82 1.23594e-81 5.24683e-81 2.18766e-80 8.95615e-80 3.59912e-79 1.41931e-78 5.49072e-78 2.08314e-77 7.74821e-77 2.82447e-76 1.00873e-75 3.52832e-75 1.20825e-74 4.04928e-74 1.32761e-73 4.25664e-73 1.33411e-72 4.08569e-72 1.2221e-71 3.56889e-71 1.01707e-70 2.82725e-70 7.66261e-70 2.02388e-69 5.20695e-69 1.30426e-68 3.17918e-68 7.53747e-68 1.73733e-67 3.89107e-67 8.46403e-67 1.7873e-66 3.66205e-66 7.27717e-66 1.40192e-65 2.61716e-65 4.73288e-65 8.28838e-65 1.40524e-64 2.30612e-64 3.66289e-64 5.6309e-64 8.37915e-64 1.20729e-63 1.68506e-63 2.27976e-63 2.9924e-63 3.815e-63 4.73056e-63 5.71456e-63 6.73778e-63 7.76971e-63 8.78192e-63 9.75043e-63 1.06568e-62 1.1488e-62 1.22354e-62 1.2893e-62 1.34572e-62 1.39252e-62 1.42957e-62 1.45687e-62 1.47464e-62 1.48335e-62 1.48374e-62 1.47686e-62 1.46401e-62 1.44661e-62 1.42609e-62 1.40367e-62 1.38021e-62 1.35614e-62 1.33152e-62 1.30616e-62 1.27992e-62 1.25284e-62 1.22536e-62 1.19826e-62 1.17252e-62 1.14911e-62 1.12873e-62 1.11172e-62 1.09807e-62 1.08761e-62 1.08026e-62 1.07622e-62 1.07609e-62 1.08074e-62 1.09113e-62 1.1079e-62 1.13102e-62 1.1596e-62 1.19174e-62 1.22469e-62 1.25514e-62 1.27967e-62 1.29519e-62 1.29944e-62 1.29138e-62 1.27136e-62 1.24116e-62 1.20382e-62 1.16315e-62 1.12323e-62 1.08778e-62 1.05963e-62 1.04032e-62 1.03004e-62 1.02775e-62 1.03154e-62 1.03913e-62 1.04826e-62 1.05707e-62 1.06422e-62 1.06888e-62 1.07066e-62 1.06941e-62 1.06519e-62 1.05816e-62 1.04871e-62 1.03744e-62 1.02526e-62 1.01339e-62 1.00325e-62 9.96351e-63 9.9399e-63 9.97075e-63 1.00592e-62 1.02019e-62 1.039e-62 1.06116e-62 1.08553e-62 1.11128e-62 1.13815e-62 1.16639e-62 1.1966e-62 1.22934e-62 1.26475e-62 1.30217e-62 1.33993e-62 1.3753e-62 1.40467e-62 1.42383e-62 1.42849e-62 1.41476e-62 1.37972e-62 1.32192e-62 1.24166e-62 1.14119e-62 1.0245e-62 8.97006e-63 7.64902e-63 6.34471e-63 5.11387e-63 4.00147e-63 3.0373e-63 2.235e-63 1.59357e-63 1.10055e-63 7.35997e-64 4.76553e-64 2.98739e-64 1.81316e-64 1.0656e-64 6.06528e-65 3.34434e-65 1.78692e-65 9.25511e-66 4.6484e-66 2.26489e-66 1.07102e-66 4.91756e-67 2.19331e-67 9.50718e-68 4.00691e-68 1.64278e-68 6.5549e-69 2.54669e-69 9.63854e-70 3.55527e-70 1.27867e-70 4.48607e-71 1.53598e-71 5.13454e-72 1.67649e-72 5.34891e-73 1.66827e-73 5.08839e-74 1.51835e-74 4.4341e-75 1.26777e-75 3.55002e-76 9.73933e-77 2.61868e-77 6.90291e-78 1.78452e-78 4.52566e-79 1.12629e-79 2.75138e-80 6.5995e-81 1.55472e-81 3.59827e-82 8.18297e-83 1.82566e-83 3.83645e-84 0 
0 3.28701e-119 2.7076e-118 2.17637e-117 1.7313e-116 1.36317e-115 1.06225e-114 8.19146e-114 6.25042e-113 4.71874e-112 3.52426e-111 2.60368e-110 1.90257e-109 1.37492e-108 9.82537e-108 6.94237e-107 4.84956e-106 3.34873e-105 2.28555e-104 1.54162e-103 1.02752e-102 6.76652e-102 4.40202e-101 2.82871e-100 1.79522e-99 1.12506e-98 6.96146e-98 4.25235e-97 2.56387e-96 1.52558e-95 8.95725e-95 5.18858e-94 2.96472e-93 1.67073e-92 9.28413e-92 5.08643e-91 2.74689e-90 1.462e-89 7.66734e-89 3.96143e-88 2.01596e-87 1.01028e-86 4.98479e-86 2.42102e-85 1.15718e-84 5.44198e-84 2.51747e-83 1.1453e-82 5.12286e-82 2.25236e-81 9.73156e-81 4.13075e-80 1.7221e-79 7.04937e-79 2.83255e-78 1.11689e-77 4.32036e-77 1.63895e-76 6.09552e-76 2.22182e-75 7.9344e-75 2.77506e-74 9.50232e-74 3.18438e-73 1.04398e-72 3.34707e-72 1.04898e-71 3.21235e-71 9.60838e-71 2.80583e-70 7.99589e-70 2.22265e-69 6.02388e-69 1.59104e-68 4.09332e-68 1.02531e-67 2.49924e-67 5.92545e-67 1.36578e-66 3.05897e-66 6.65413e-66 1.40514e-65 2.87911e-65 5.72146e-65 1.10225e-64 2.05778e-64 3.7214e-64 6.51722e-64 1.10498e-63 1.81342e-63 2.88039e-63 4.42806e-63 6.58935e-63 9.49424e-63 1.32515e-62 1.79283e-62 2.35323e-62 3.00007e-62 3.71996e-62 4.49357e-62 5.29789e-62 6.10892e-62 6.90427e-62 7.66507e-62 8.37686e-62 9.0294e-62 9.61588e-62 1.01318e-61 1.05743e-61 1.09412e-61 1.12316e-61 1.14455e-61 1.15847e-61 1.16528e-61 1.16558e-61 1.16019e-61 1.15011e-61 1.13648e-61 1.1204e-61 1.10283e-61 1.08444e-61 1.06558e-61 1.04628e-61 1.02641e-61 1.00584e-61 9.84611e-62 9.63068e-62 9.41824e-62 9.21651e-62 9.03302e-62 8.87328e-62 8.73996e-62 8.63301e-62 8.55115e-62 8.49365e-62 8.46213e-62 8.46121e-62 8.49787e-62 8.57946e-62 8.71099e-62 8.89236e-62 9.11641e-62 9.36834e-62 9.6266e-62 9.86527e-62 1.00574e-61 1.01789e-61 1.02121e-61 1.01488e-61 9.99159e-62 9.75472e-62 9.46178e-62 9.14281e-62 8.82978e-62 8.55185e-62 8.33115e-62 8.17985e-62 8.09938e-62 8.08156e-62 8.11148e-62 8.17113e-62 8.24291e-62 8.31216e-62 8.36836e-62 8.40507e-62 8.4191e-62 8.4094e-62 8.37626e-62 8.32117e-62 8.24696e-62 8.15843e-62 8.06274e-62 7.9694e-62 7.88965e-62 7.83519e-62 7.81633e-62 7.84018e-62 7.90923e-62 8.02085e-62 8.16814e-62 8.3418e-62 8.53277e-62 8.73469e-62 8.94538e-62 9.16684e-62 9.40371e-62 9.66044e-62 9.93808e-62 1.02315e-61 1.05275e-61 1.08048e-61 1.10348e-61 1.11849e-61 1.12211e-61 1.1113e-61 1.08377e-61 1.03837e-61 9.75341e-62 8.96438e-62 8.04803e-62 7.04676e-62 6.00922e-62 4.98473e-62 4.01789e-62 3.14402e-62 2.38654e-62 1.7562e-62 1.25222e-62 8.64828e-63 5.78372e-63 3.74499e-63 2.34768e-63 1.42491e-63 8.37435e-64 4.76662e-64 2.6283e-64 1.40434e-64 7.27363e-65 3.65322e-65 1.78002e-65 8.41742e-66 3.86487e-66 1.72382e-66 7.47224e-67 3.14932e-67 1.29121e-67 5.15223e-68 2.00179e-68 7.57649e-69 2.79478e-69 1.0052e-69 3.52679e-70 1.20759e-70 4.03702e-71 1.31822e-71 4.2061e-72 1.31194e-72 4.00184e-73 1.19422e-73 3.48784e-74 9.97309e-75 2.79294e-75 7.66308e-76 2.06063e-76 5.43249e-77 1.40455e-77 3.56245e-78 8.86685e-79 2.16634e-79 5.19689e-80 1.22446e-80 2.8343e-81 6.44652e-82 1.43846e-82 3.02321e-83 0 
0 2.58779e-118 2.1311e-117 1.71253e-116 1.36197e-115 1.0721e-114 8.35221e-114 6.43911e-113 4.91207e-112 3.70744e-111 2.76827e-110 2.04466e-109 1.49372e-108 1.0792e-107 7.71027e-107 5.4466e-106 3.8038e-105 2.626e-104 1.79186e-103 1.20835e-102 8.05203e-102 5.30134e-101 3.44807e-100 2.21522e-99 1.40557e-98 8.80677e-98 5.44816e-97 3.32727e-96 2.0057e-95 1.19321e-94 7.00437e-94 4.05655e-93 2.31744e-92 1.30571e-91 7.2544e-91 3.97368e-90 2.14557e-89 1.14175e-88 5.98678e-88 3.09262e-87 1.57356e-86 7.88451e-86 3.88964e-85 1.88883e-84 9.02672e-84 4.24445e-83 1.96321e-82 8.93018e-82 3.9939e-81 1.75576e-80 7.58501e-80 3.21922e-79 1.34193e-78 5.49254e-78 2.20676e-77 8.70051e-77 3.36521e-76 1.27649e-75 4.74708e-75 1.73018e-74 6.17821e-74 2.16068e-73 7.39811e-73 2.47908e-72 8.12709e-72 2.60547e-71 8.16529e-71 2.50041e-70 7.47869e-70 2.18387e-69 6.22334e-69 1.7299e-68 4.68838e-68 1.2383e-67 3.18582e-67 7.98e-67 1.94518e-66 4.6119e-66 1.06304e-65 2.38096e-65 5.17939e-65 1.09375e-64 2.24115e-64 4.45382e-64 8.58063e-64 1.60197e-63 2.89719e-63 5.07397e-63 8.60307e-63 1.41192e-62 2.24272e-62 3.44785e-62 5.13081e-62 7.39282e-62 1.03185e-61 1.39602e-61 1.83238e-61 2.33601e-61 2.89646e-61 3.49868e-61 4.12471e-61 4.75583e-61 5.37461e-61 5.96635e-61 6.51979e-61 7.02699e-61 7.48269e-61 7.88344e-61 8.22698e-61 8.5118e-61 8.73713e-61 8.9031e-61 9.01105e-61 9.06386e-61 9.06613e-61 9.02422e-61 8.94601e-61 8.84021e-61 8.71544e-61 8.5791e-61 8.43645e-61 8.29011e-61 8.14038e-61 7.98619e-61 7.82652e-61 7.66178e-61 7.49458e-61 7.32969e-61 7.17313e-61 7.03072e-61 6.90677e-61 6.80334e-61 6.7204e-61 6.65693e-61 6.6124e-61 6.58804e-61 6.58744e-61 6.616e-61 6.67943e-61 6.7816e-61 6.92244e-61 7.09638e-61 7.29191e-61 7.49233e-61 7.67752e-61 7.82657e-61 7.92077e-61 7.94641e-61 7.89707e-61 7.77494e-61 7.59094e-61 7.36345e-61 7.11577e-61 6.87272e-61 6.65697e-61 6.48567e-61 6.36829e-61 6.30592e-61 6.29222e-61 6.31559e-61 6.36204e-61 6.41791e-61 6.4718e-61 6.51555e-61 6.54415e-61 6.55511e-61 6.54763e-61 6.52192e-61 6.47913e-61 6.42145e-61 6.35262e-61 6.27817e-61 6.2055e-61 6.14335e-61 6.1008e-61 6.08589e-61 6.10415e-61 6.15752e-61 6.24398e-61 6.35817e-61 6.49289e-61 6.64109e-61 6.79783e-61 6.96139e-61 7.13333e-61 7.31724e-61 7.51656e-61 7.7321e-61 7.95985e-61 8.18961e-61 8.40477e-61 8.58327e-61 8.69955e-61 8.7274e-61 8.64314e-61 8.42898e-61 8.07591e-61 7.58585e-61 6.97235e-61 6.25984e-61 5.48126e-61 4.67441e-61 3.87765e-61 3.12567e-61 2.44595e-61 1.85673e-61 1.36636e-61 9.74287e-62 6.72892e-62 4.5002e-62 2.91395e-62 1.82673e-62 1.10874e-62 6.5162e-63 3.70899e-63 2.04513e-63 1.09274e-63 5.65976e-64 2.84265e-64 1.38507e-64 6.54982e-65 3.00738e-65 1.34137e-65 5.81447e-66 2.45066e-66 1.00478e-66 4.00937e-67 1.55779e-67 5.89619e-68 2.17502e-68 7.8232e-69 2.74492e-69 9.39916e-70 3.14234e-70 1.02613e-70 3.27432e-71 1.02137e-71 3.11572e-72 9.2986e-73 2.71595e-73 7.76663e-74 2.17522e-74 5.96878e-75 1.60519e-75 4.23223e-76 1.09434e-76 2.77597e-77 6.91013e-78 1.68848e-78 4.05106e-79 9.5461e-80 2.20997e-80 5.02721e-81 1.12192e-81 2.35825e-82 0 
0 2.01626e-117 1.66001e-116 1.33363e-115 1.06036e-114 8.34468e-114 6.49931e-113 5.00938e-112 3.82045e-111 2.88281e-110 2.15201e-109 1.58911e-108 1.16063e-107 8.38346e-107 5.9881e-106 4.22905e-105 2.9528e-104 2.03803e-103 1.39034e-102 9.37372e-102 6.24492e-101 4.11065e-100 2.67304e-99 1.71693e-98 1.08917e-97 6.82288e-97 4.21998e-96 2.57667e-95 1.55292e-94 9.23658e-94 5.421e-93 3.13894e-92 1.79288e-91 1.00997e-90 5.61025e-90 3.07252e-89 1.6587e-88 8.8251e-88 4.62667e-87 2.38962e-86 1.21567e-85 6.09028e-85 3.00403e-84 1.45855e-83 6.9694e-83 3.27661e-82 1.51534e-81 6.89201e-81 3.08195e-80 1.35469e-79 5.85165e-79 2.48326e-78 1.03503e-77 4.23596e-77 1.70173e-76 6.7087e-76 2.59458e-75 9.84095e-75 3.6594e-74 1.33365e-73 4.76194e-73 1.66527e-72 5.70152e-72 1.91046e-71 6.26272e-71 2.00769e-70 6.29169e-70 1.92662e-69 5.76234e-69 1.68264e-68 4.79494e-68 1.33284e-67 3.61227e-67 9.54076e-67 2.45461e-66 6.14853e-66 1.49877e-65 3.55357e-65 8.19115e-65 1.83468e-64 3.99119e-64 8.42866e-64 1.72713e-63 3.43246e-63 6.61317e-63 1.2347e-62 2.23307e-62 3.91102e-62 6.63151e-62 1.08839e-61 1.72888e-61 2.65797e-61 3.95547e-61 5.6994e-61 7.95501e-61 1.07626e-60 1.41265e-60 1.80089e-60 2.23289e-60 2.69703e-60 3.17945e-60 3.6657e-60 4.14231e-60 4.59797e-60 5.02401e-60 5.41431e-60 5.76485e-60 6.07301e-60 6.3371e-60 6.55597e-60 6.72908e-60 6.85655e-60 6.93943e-60 6.97994e-60 6.98164e-60 6.94941e-60 6.8893e-60 6.80802e-60 6.71218e-60 6.60746e-60 6.49788e-60 6.38548e-60 6.27046e-60 6.15201e-60 6.02934e-60 5.90276e-60 5.77428e-60 5.64759e-60 5.52729e-60 5.41788e-60 5.32266e-60 5.24322e-60 5.17954e-60 5.13084e-60 5.09669e-60 5.07806e-60 5.07768e-60 5.09971e-60 5.14852e-60 5.22709e-60 5.33536e-60 5.46904e-60 5.6193e-60 5.77327e-60 5.91552e-60 6.02999e-60 6.10229e-60 6.12189e-60 6.08386e-60 5.9899e-60 5.84841e-60 5.6735e-60 5.4831e-60 5.29628e-60 5.13047e-60 4.99885e-60 4.90869e-60 4.86084e-60 4.85041e-60 4.86848e-60 4.90431e-60 4.94736e-60 4.98888e-60 5.02259e-60 5.04465e-60 5.05313e-60 5.04741e-60 5.02767e-60 4.99476e-60 4.95038e-60 4.89739e-60 4.84005e-60 4.78403e-60 4.73608e-60 4.70317e-60 4.6915e-60 4.70534e-60 4.74618e-60 4.81248e-60 4.90013e-60 5.0036e-60 5.11746e-60 5.2379e-60 5.36361e-60 5.49577e-60 5.63713e-60 5.79033e-60 5.95598e-60 6.13101e-60 6.30755e-60 6.47286e-60 6.60995e-60 6.69918e-60 6.7204e-60 6.65538e-60 6.49042e-60 6.21859e-60 5.84134e-60 5.36907e-60 4.82057e-60 4.22117e-60 3.59996e-60 2.98647e-60 2.40741e-60 1.88397e-60 1.43017e-60 1.0525e-60 7.50504e-61 5.18348e-61 3.46669e-61 2.24477e-61 1.40724e-61 8.54128e-62 5.01984e-62 2.85727e-62 1.57548e-62 8.41802e-63 4.36001e-63 2.18984e-63 1.06698e-63 5.04561e-64 2.31671e-64 1.03331e-64 4.47915e-65 1.88786e-65 7.74034e-66 3.08868e-66 1.20009e-66 4.54238e-67 1.67566e-67 6.02727e-68 2.11485e-68 7.24196e-69 2.42124e-69 7.90697e-70 2.5232e-70 7.87114e-71 2.40127e-71 7.16687e-72 2.09347e-72 5.98701e-73 1.67694e-73 4.6019e-74 1.23771e-74 3.26366e-75 8.43982e-76 2.14112e-76 5.33043e-77 1.30263e-77 3.1257e-78 7.36648e-79 1.7056e-79 3.88039e-80 8.66106e-81 1.82077e-81 0 
0 1.55457e-116 1.27958e-115 1.02773e-114 8.16934e-114 6.42739e-113 5.00477e-112 3.85649e-111 2.94046e-110 2.21826e-109 1.65552e-108 1.22219e-107 8.92434e-107 6.44468e-106 4.60219e-105 3.24951e-104 2.26834e-103 1.56526e-102 1.06758e-101 7.19601e-101 4.79303e-100 3.15427e-99 2.05069e-98 1.31691e-97 8.35225e-97 5.23102e-96 3.23474e-95 1.97469e-94 1.18988e-93 7.07586e-93 4.15206e-92 2.40372e-91 1.37268e-90 7.73121e-90 4.29381e-89 2.35114e-88 1.26904e-87 6.75076e-87 3.53858e-86 1.82734e-85 9.2947e-85 4.65575e-84 2.2961e-83 1.11467e-82 5.32546e-82 2.50338e-81 1.15758e-80 5.2642e-80 2.35374e-79 1.03448e-78 4.46796e-78 1.89585e-77 7.90117e-77 3.23329e-76 1.2988e-75 5.11979e-75 1.9799e-74 7.50896e-74 2.79204e-73 1.01747e-72 3.63278e-72 1.27033e-71 4.3491e-71 1.45723e-70 4.77678e-70 1.53128e-69 4.79859e-69 1.46937e-68 4.3947e-68 1.28327e-67 3.65686e-67 1.01649e-66 2.75491e-66 7.2764e-66 1.87208e-65 4.68944e-65 1.14313e-64 2.71044e-64 6.2479e-64 1.39948e-63 3.04457e-63 6.42985e-63 1.31761e-62 2.61871e-62 5.04559e-62 9.42074e-62 1.70391e-61 2.98438e-61 5.06053e-61 8.3059e-61 1.31942e-60 2.02853e-60 3.01884e-60 4.34991e-60 6.07152e-60 8.21437e-60 1.07818e-59 1.37447e-59 1.70413e-59 2.05827e-59 2.42629e-59 2.79716e-59 3.1606e-59 3.50795e-59 3.83261e-59 4.12994e-59 4.39687e-59 4.63145e-59 4.83241e-59 4.99891e-59 5.13056e-59 5.22747e-59 5.29045e-59 5.32122e-59 5.32247e-59 5.29793e-59 5.25221e-59 5.19039e-59 5.11751e-59 5.03788e-59 4.95457e-59 4.8691e-59 4.78164e-59 4.69155e-59 4.59826e-59 4.50198e-59 4.40426e-59 4.30789e-59 4.21639e-59 4.13318e-59 4.06077e-59 4.00037e-59 3.95197e-59 3.91498e-59 3.88906e-59 3.87495e-59 3.87472e-59 3.89154e-59 3.92873e-59 3.98855e-59 4.07094e-59 4.17264e-59 4.28694e-59 4.40404e-59 4.51221e-59 4.59923e-59 4.65416e-59 4.669e-59 4.63999e-59 4.56843e-59 4.46071e-59 4.32759e-59 4.18269e-59 4.04055e-59 3.9144e-59 3.81428e-59 3.74574e-59 3.7094e-59 3.70154e-59 3.71538e-59 3.74273e-59 3.77557e-59 3.80724e-59 3.83296e-59 3.8498e-59 3.85629e-59 3.85197e-59 3.83695e-59 3.8119e-59 3.7781e-59 3.73771e-59 3.69399e-59 3.65125e-59 3.61462e-59 3.58942e-59 3.58039e-59 3.59076e-59 3.62169e-59 3.67203e-59 3.73863e-59 3.81729e-59 3.90389e-59 3.99551e-59 4.09115e-59 4.19171e-59 4.29927e-59 4.41583e-59 4.54186e-59 4.67501e-59 4.8093e-59 4.93502e-59 5.03925e-59 5.10704e-59 5.12303e-59 5.07336e-59 4.94758e-59 4.7404e-59 4.45291e-59 4.09302e-59 3.67501e-59 3.21818e-59 2.74469e-59 2.27706e-59 1.83563e-59 1.43656e-59 1.09058e-59 8.02604e-60 5.72327e-60 3.95295e-60 2.64376e-60 1.71191e-60 1.0732e-60 6.51381e-61 3.82825e-61 2.17901e-61 1.20148e-61 6.41962e-62 3.32493e-62 1.66994e-62 8.1366e-63 3.84763e-63 1.76664e-63 7.87961e-64 3.4156e-64 1.4396e-64 5.90244e-65 2.3553e-65 9.15147e-66 3.46392e-66 1.27784e-66 4.59643e-67 1.61284e-67 5.52309e-68 1.84663e-68 6.03072e-69 1.92455e-69 6.00397e-70 1.83175e-70 5.46742e-71 1.59716e-71 4.56797e-72 1.27957e-72 3.51172e-73 9.4458e-74 2.49095e-74 6.44222e-75 1.63451e-75 4.06963e-76 9.94635e-77 2.38693e-77 5.62607e-78 1.3028e-78 2.96437e-79 6.61737e-80 1.39131e-80 0 
0 1.18597e-115 9.75944e-115 7.83663e-114 6.22768e-113 4.89853e-112 3.81335e-111 2.9377e-110 2.23937e-109 1.68894e-108 1.26018e-107 9.30108e-107 6.78998e-106 4.90221e-105 3.49989e-104 2.47062e-103 1.72424e-102 1.18954e-101 8.11134e-101 5.46625e-100 3.64009e-99 2.39501e-98 1.55673e-97 9.99488e-97 6.33777e-96 3.96853e-95 2.45355e-94 1.4975e-93 9.02161e-93 5.36385e-92 3.14686e-91 1.82145e-90 1.03997e-89 5.85627e-89 3.25191e-88 1.78032e-87 9.60774e-87 5.11006e-86 2.67813e-85 1.38278e-84 7.03237e-84 3.52201e-83 1.73671e-82 8.42986e-82 4.02691e-81 1.8927e-80 8.75091e-80 3.97904e-79 1.77891e-78 7.81747e-78 3.37602e-77 1.43237e-76 5.96897e-76 2.44237e-75 9.81003e-75 3.86673e-74 1.49521e-73 5.6703e-73 2.10823e-72 7.68236e-72 2.74275e-71 9.59053e-71 3.28327e-70 1.10006e-69 3.6059e-69 1.1559e-68 3.6222e-68 1.10914e-67 3.31725e-67 9.68649e-67 2.76031e-66 7.67288e-66 2.07955e-65 5.4927e-65 1.4132e-64 3.54009e-64 8.6299e-64 2.04628e-63 4.71713e-63 1.05665e-62 2.29885e-62 4.85521e-62 9.94988e-62 1.97761e-61 3.81057e-61 7.1152e-61 1.28698e-60 2.25425e-60 3.82266e-60 6.27446e-60 9.96758e-60 1.53252e-59 2.28075e-59 3.28646e-59 4.58724e-59 6.20626e-59 8.14599e-59 1.03844e-58 1.28746e-58 1.55494e-58 1.83286e-58 2.11288e-58 2.3872e-58 2.64931e-58 2.89421e-58 3.11841e-58 3.31961e-58 3.49636e-58 3.64773e-58 3.7731e-58 3.8722e-58 3.94512e-58 3.9925e-58 4.01563e-58 4.01654e-58 3.99804e-58 3.96361e-58 3.91707e-58 3.86222e-58 3.80229e-58 3.73958e-58 3.67526e-58 3.60943e-58 3.54162e-58 3.47138e-58 3.3989e-58 3.32533e-58 3.25277e-58 3.18389e-58 3.12124e-58 3.06674e-58 3.02129e-58 2.98488e-58 2.95706e-58 2.93759e-58 2.92701e-58 2.92689e-58 2.9396e-58 2.96764e-58 3.01272e-58 3.07477e-58 3.15137e-58 3.23742e-58 3.32559e-58 3.40701e-58 3.47249e-58 3.5138e-58 3.52491e-58 3.503e-58 3.44906e-58 3.36789e-58 3.2676e-58 3.15845e-58 3.05139e-58 2.9564e-58 2.88102e-58 2.82944e-58 2.80213e-58 2.79627e-58 2.80677e-58 2.82743e-58 2.85223e-58 2.87615e-58 2.89556e-58 2.90829e-58 2.91321e-58 2.90997e-58 2.89867e-58 2.87979e-58 2.8543e-58 2.82383e-58 2.79083e-58 2.75855e-58 2.73085e-58 2.71176e-58 2.70483e-58 2.71253e-58 2.73572e-58 2.77355e-58 2.82364e-58 2.88284e-58 2.94803e-58 3.01702e-58 3.08905e-58 3.16478e-58 3.24579e-58 3.33357e-58 3.42848e-58 3.52874e-58 3.62985e-58 3.72449e-58 3.80293e-58 3.8539e-58 3.86584e-58 3.82828e-58 3.73335e-58 3.57705e-58 3.36018e-58 3.08869e-58 2.77336e-58 2.42871e-58 2.07147e-58 1.71862e-58 1.38551e-58 1.08434e-58 8.23211e-59 6.05857e-59 4.32039e-59 2.98406e-59 1.99578e-59 1.29233e-59 8.10165e-60 4.9173e-60 2.88994e-60 1.64491e-60 9.06974e-61 4.84595e-61 2.50983e-61 1.26054e-61 6.14171e-62 2.90424e-62 1.33346e-62 5.94744e-63 2.57803e-63 1.08657e-63 4.45497e-64 1.7777e-64 6.90722e-65 2.61446e-65 9.64489e-66 3.46933e-66 1.21738e-66 4.16894e-67 1.39391e-67 4.5524e-68 1.45284e-68 4.53259e-69 1.38292e-69 4.12795e-70 1.20594e-70 3.4493e-71 9.66277e-72 2.6521e-72 7.1342e-73 1.88152e-73 4.86653e-74 1.23485e-74 3.07486e-75 7.51588e-76 1.80387e-76 4.25226e-77 9.8479e-78 2.24106e-78 5.00337e-79 1.05209e-79 0 
0 8.9516e-115 7.3645e-114 5.91205e-113 4.69707e-112 3.69367e-111 2.8747e-110 2.21405e-109 1.68733e-108 1.27228e-107 9.4907e-107 7.00317e-106 5.11126e-105 3.68935e-104 2.63337e-103 1.85851e-102 1.29676e-101 8.94418e-101 6.09761e-100 4.10829e-99 2.73521e-98 1.79925e-97 1.16925e-96 7.50549e-96 4.75826e-95 2.97888e-94 1.84133e-93 1.12362e-92 6.76784e-92 4.02309e-91 2.35982e-90 1.36564e-89 7.79587e-89 4.38921e-88 2.43685e-87 1.33387e-86 7.1972e-86 3.82735e-85 2.00555e-84 1.03535e-83 5.26467e-83 2.63631e-82 1.29979e-81 6.30818e-81 3.01298e-80 1.41596e-79 6.54588e-79 2.97606e-78 1.33035e-77 5.84564e-77 2.52421e-76 1.07086e-75 4.46206e-75 1.82562e-74 7.33216e-74 2.88983e-73 1.11737e-72 4.23716e-72 1.57529e-71 5.74003e-71 2.0492e-70 7.16511e-70 2.45285e-69 8.21807e-69 2.69373e-68 8.63487e-68 2.70583e-67 8.28535e-67 2.47802e-66 7.23596e-66 2.06202e-65 5.73194e-65 1.55354e-64 4.10347e-64 1.05581e-63 2.64492e-63 6.44796e-63 1.52898e-62 3.52482e-62 7.89611e-62 1.71798e-61 3.62862e-61 7.43667e-61 1.47819e-60 2.84843e-60 5.31899e-60 9.62143e-60 1.68538e-59 2.85814e-59 4.69157e-59 7.45335e-59 1.146e-58 1.70558e-58 2.45773e-58 3.43055e-58 4.64136e-58 6.09197e-58 7.76578e-58 9.62776e-58 1.16275e-57 1.37049e-57 1.57975e-57 1.7847e-57 1.98046e-57 2.16331e-57 2.33063e-57 2.48074e-57 2.61255e-57 2.72539e-57 2.81883e-57 2.89266e-57 2.94697e-57 2.98224e-57 2.99944e-57 3.0001e-57 2.9863e-57 2.96064e-57 2.92596e-57 2.88509e-57 2.84045e-57 2.79374e-57 2.74583e-57 2.69679e-57 2.64627e-57 2.59394e-57 2.53993e-57 2.48511e-57 2.43104e-57 2.37971e-57 2.33304e-57 2.29244e-57 2.25858e-57 2.23147e-57 2.21077e-57 2.19629e-57 2.18844e-57 2.18839e-57 2.19789e-57 2.21882e-57 2.25244e-57 2.2987e-57 2.35579e-57 2.41992e-57 2.48562e-57 2.54627e-57 2.59504e-57 2.62579e-57 2.63403e-57 2.61765e-57 2.57741e-57 2.51687e-57 2.44209e-57 2.36071e-57 2.28091e-57 2.2101e-57 2.15394e-57 2.11552e-57 2.0952e-57 2.09089e-57 2.09877e-57 2.11422e-57 2.13276e-57 2.15063e-57 2.16515e-57 2.17466e-57 2.17835e-57 2.17595e-57 2.16753e-57 2.15344e-57 2.13442e-57 2.11167e-57 2.08701e-57 2.06288e-57 2.04215e-57 2.02783e-57 2.02258e-57 2.02823e-57 2.04544e-57 2.07357e-57 2.11087e-57 2.15496e-57 2.20354e-57 2.25495e-57 2.30864e-57 2.36509e-57 2.42547e-57 2.49091e-57 2.56164e-57 2.63636e-57 2.71171e-57 2.78223e-57 2.84065e-57 2.87859e-57 2.88741e-57 2.8593e-57 2.78838e-57 2.67167e-57 2.50974e-57 2.30704e-57 2.07159e-57 1.81423e-57 1.54745e-57 1.28391e-57 1.0351e-57 8.10136e-58 6.15062e-58 4.52678e-58 3.22814e-58 2.22968e-58 1.49126e-58 9.65639e-59 6.05357e-59 3.67419e-59 2.15932e-59 1.22903e-59 6.77652e-60 3.62061e-60 1.87515e-60 9.4175e-61 4.58837e-61 2.16965e-61 9.96156e-62 4.44292e-62 1.92582e-62 8.11668e-63 3.32783e-63 1.32791e-63 5.15954e-64 1.95294e-64 7.20451e-65 2.59153e-65 9.09369e-66 3.11421e-66 1.04128e-66 3.40081e-67 1.08536e-67 3.38625e-68 1.03321e-68 3.08423e-69 9.01076e-70 2.57745e-70 7.22087e-71 1.98202e-71 5.33207e-72 1.40635e-72 3.63783e-73 9.23159e-74 2.29895e-74 5.61989e-75 1.34896e-75 3.18025e-76 7.36607e-77 1.67648e-77 3.74335e-78 7.87234e-79 0 