# vtk DataFile Version 3.0
Gray-Scott Simulation Output
ASCII
DATASET STRUCTURED_POINTS
DIMENSIONS 256 256 1
SPACING 1.0 1.0 1.0
ORIGIN 0 0 0
POINT_DATA 65536
SCALARS u double
LOOKUP_TABLE default
0 0 0 0 0 0 0 0 0 0 0 0 0 0 0 0 0 0 0 0 0 0 0 0 0 0 0 0 0 0 0 0 0 0 0 0 0 0 0 0 0 0 0 0 0 0 0 0 0 0 0 0 0 0 0 0 0 0 0 0 0 0 0 0 0 0 0 0 0 0 0 0 0 0 0 0 0 0 0 0 0 0 0 0 0 0 0 0 0 0 0 0 0 0 0 0 0 0 0 0 0 0 0 0 0 0 0 0 0 0 0 0 0 0 0 0 0 0 0 0 0 0 0 0 0 0 0 0 0 0 0 0 0 0 0 0 0 0 0 0 0 0 0 0 0 0 0 0 0 0 0 0 0 0 0 0 0 0 0 0 0 0 0 0 0 0 0 0 0 0 0 0 0 0 0 0 0 0 0 0 0 0 0 0 0 0 0 0 0 0 0 0 0 0 0 0 0 0 0 0 0 0 0 0 0 0 0 0 0 0 0 0 0 0 0 0 0 0 0 0 0 0 0 0 0 0 0 0 0 0 0 0 0 0 0 0 0 0 0 0 0 0 0 0 0 0 0 0 0 0 0 0 0 0 0 0 
0 6.20721e-96 3.267e-95 1.64362e-94 8.18029e-94 4.03243e-93 1.96872e-92 9.51881e-92 4.55752e-91 2.16065e-90 1.01418e-89 4.71279e-89 2.16789e-88 9.87085e-88 4.44824e-87 1.9838e-86 8.75473e-86 3.82279e-85 1.65146e-84 7.05769e-84 2.98346e-83 1.24737e-82 5.15753e-82 2.1087e-81 8.5244e-81 3.40678e-80 1.34587e-79 5.25528e-79 2.028e-78 7.73335e-78 2.91369e-77 1.08453e-76 3.98755e-76 1.44805e-75 5.19298e-75 1.83886e-74 6.42863e-74 2.21855e-73 7.5568e-73 2.54018e-72 8.4253e-72 2.757e-71 8.89924e-71 2.83314e-70 8.89436e-70 2.75311e-69 8.40089e-69 2.52667e-68 7.48896e-68 2.18711e-67 6.29245e-67 1.78318e-66 4.97643e-66 1.36745e-65 3.69909e-65 9.84891e-65 2.58053e-64 6.65236e-64 1.68696e-63 4.20735e-63 1.03182e-62 2.48773e-62 5.89547e-62 1.37298e-61 3.14158e-61 7.06128e-61 1.55877e-60 3.37871e-60 7.18959e-60 1.50159e-59 3.07755e-59 6.1884e-59 1.22063e-58 2.36122e-58 4.47875e-58 8.32844e-58 1.51803e-57 2.71164e-57 4.74629e-57 8.13918e-57 1.36727e-56 2.24971e-56 3.62537e-56 5.72138e-56 8.84196e-56 1.33809e-55 1.98297e-55 2.87778e-55 4.09021e-55 5.69425e-55 7.76614e-55 1.03789e-54 1.35957e-54 1.74626e-54 2.20015e-54 2.72049e-54 3.30322e-54 3.94095e-54 4.62319e-54 5.33702e-54 6.06781e-54 6.80026e-54 7.51928e-54 8.21091e-54 8.86293e-54 9.46532e-54 1.00104e-53 1.04928e-53 1.09095e-53 1.12592e-53 1.15425e-53 1.17613e-53 1.19189e-53 1.20195e-53 1.20681e-53 1.20704e-53 1.20323e-53 1.196e-53 1.18592e-53 1.17356e-53 1.15939e-53 1.14387e-53 1.12736e-53 1.11023e-53 1.09278e-53 1.07535e-53 1.05824e-53 1.04177e-53 1.02629e-53 1.01211e-53 9.99547e-54 9.88884e-54 9.80388e-54 9.74289e-54 9.70785e-54 9.7002e-54 9.72068e-54 9.76905e-54 9.84367e-54 9.94125e-54 1.00566e-53 1.01825e-53 1.03101e-53 1.04296e-53 1.05308e-53 1.06042e-53 1.06422e-53 1.06398e-53 1.05954e-53 1.05114e-53 1.03935e-53 1.02502e-53 1.00924e-53 9.93126e-54 9.77764e-54 9.64066e-54 9.52684e-54 9.43967e-54 9.37954e-54 9.34406e-54 9.32871e-54 9.32758e-54 9.33428e-54 9.34262e-54 9.3473e-54 9.3443e-54 9.33116e-54 9.30708e-54 9.2729e-54 9.23094e-54 9.18481e-54 9.13907e-54 9.09888e-54 9.06952e-54 9.05598e-54 9.06253e-54 9.09237e-54 9.14747e-54 9.22848e-54 9.33488e-54 9.46516e-54 9.61708e-54 9.78783e-54 9.97406e-54 1.01718e-53 1.0376e-53 1.05805e-53 1.07769e-53 1.09552e-53 1.11028e-53 1.12056e-53 1.12481e-53 1.1215e-53 1.10919e-53 1.08674e-53 1.05342e-53 1.00903e-53 9.5398e-54 8.89315e-54 8.16658e-54 7.38106e-54 6.56081e-54 5.73135e-54 4.91759e-54 4.14199e-54 3.42314e-54 2.77473e-54 2.20518e-54 1.71777e-54 1.31122e-54 9.80583e-55 7.18329e-55 5.15392e-55 3.6215e-55 2.49202e-55 1.67925e-55 1.1081e-55 7.16073e-56 4.53177e-56 2.80894e-56 1.70537e-56 1.01424e-56 5.90967e-57 3.37397e-57 1.88773e-57 1.0352e-57 5.56499e-58 2.93317e-58 1.51607e-58 7.68578e-59 3.82232e-59 1.86518e-59 8.93202e-60 4.19859e-60 1.93761e-60 8.7806e-61 3.9081e-61 1.70875e-61 7.34086e-62 3.09927e-62 1.28618e-62 5.24759e-63 2.10532e-63 8.30736e-64 3.2246e-64 1.23151e-64 4.62845e-65 1.71217e-65 6.23518e-66 2.23575e-66 7.89484e-67 2.74565e-67 9.39795e-68 3.141e-68 9.44892e-69 0 
0 3.26323e-95 1.71746e-94 8.64024e-94 4.30011e-93 2.11966e-92 1.03484e-91 5.00339e-91 2.39554e-90 1.13568e-89 5.33063e-89 2.47708e-88 1.13946e-87 5.18818e-87 2.33803e-86 1.04271e-85 4.60164e-85 2.00935e-84 8.68065e-84 3.70985e-83 1.56829e-82 6.55712e-82 2.71128e-81 1.10857e-80 4.48159e-80 1.79115e-79 7.07646e-79 2.76332e-78 1.06642e-77 4.06685e-77 1.53237e-76 5.70418e-76 2.09746e-75 7.6174e-75 2.73199e-74 9.67498e-74 3.3827e-73 1.1675e-72 3.97718e-72 1.33706e-71 4.4353e-71 1.45154e-70 4.68598e-70 1.49202e-69 4.68469e-69 1.45028e-68 4.42609e-68 1.33141e-67 3.94687e-67 1.15285e-66 3.31739e-66 9.40259e-66 2.62451e-65 7.21309e-65 1.95158e-64 5.19713e-64 1.36198e-63 3.51176e-63 8.90721e-63 2.22196e-62 5.45034e-62 1.31437e-61 3.11549e-61 7.25716e-61 1.66092e-60 3.73405e-60 8.24471e-60 1.78749e-59 3.80446e-59 7.94764e-59 1.62925e-58 3.27685e-58 6.46483e-58 1.25085e-57 2.3731e-57 4.4138e-57 8.04666e-57 1.43765e-56 2.51684e-56 4.31677e-56 7.2528e-56 1.19356e-55 1.92369e-55 3.03629e-55 4.69293e-55 7.10277e-55 1.05268e-54 1.52782e-54 2.17162e-54 3.02337e-54 4.12353e-54 5.51082e-54 7.21867e-54 9.27142e-54 1.16806e-53 1.44419e-53 1.75337e-53 2.09163e-53 2.45341e-53 2.8318e-53 3.21904e-53 3.60701e-53 3.9877e-53 4.35372e-53 4.69862e-53 5.01711e-53 5.30517e-53 5.56001e-53 5.78e-53 5.96457e-53 6.114e-53 6.22937e-53 6.3124e-53 6.36533e-53 6.39084e-53 6.39192e-53 6.37173e-53 6.33347e-53 6.28023e-53 6.21492e-53 6.14012e-53 6.05815e-53 5.97103e-53 5.88059e-53 5.78853e-53 5.6965e-53 5.6062e-53 5.51933e-53 5.43763e-53 5.3628e-53 5.2965e-53 5.24024e-53 5.19542e-53 5.16326e-53 5.14479e-53 5.14078e-53 5.15162e-53 5.17718e-53 5.21661e-53 5.26816e-53 5.32908e-53 5.39559e-53 5.46303e-53 5.52618e-53 5.57963e-53 5.61841e-53 5.63845e-53 5.63716e-53 5.61374e-53 5.56936e-53 5.50705e-53 5.43141e-53 5.34806e-53 5.26298e-53 5.1819e-53 5.10963e-53 5.0496e-53 5.00367e-53 4.97202e-53 4.9534e-53 4.9454e-53 4.9449e-53 4.94852e-53 4.95297e-53 4.95547e-53 4.95389e-53 4.94693e-53 4.93417e-53 4.91605e-53 4.89382e-53 4.86936e-53 4.84511e-53 4.82379e-53 4.80819e-53 4.80095e-53 4.80434e-53 4.82005e-53 4.8491e-53 4.89185e-53 4.94801e-53 5.0168e-53 5.09702e-53 5.18718e-53 5.28553e-53 5.38995e-53 5.49782e-53 5.6058e-53 5.70958e-53 5.80376e-53 5.88179e-53 5.93615e-53 5.95869e-53 5.94122e-53 5.8762e-53 5.75753e-53 5.58131e-53 5.34648e-53 5.05519e-53 4.71293e-53 4.32826e-53 3.9123e-53 3.47783e-53 3.0384e-53 2.6072e-53 2.19616e-53 1.81513e-53 1.47138e-53 1.16941e-53 9.10963e-54 6.95372e-54 5.2003e-54 3.80945e-54 2.73316e-54 1.92043e-54 1.32141e-54 8.90375e-55 5.87493e-55 3.79612e-55 2.40218e-55 1.48877e-55 9.03754e-56 5.37421e-56 3.13093e-56 1.78725e-56 9.99802e-57 5.48183e-57 2.9464e-57 1.5527e-57 8.02399e-58 4.06705e-58 2.02226e-58 9.86615e-59 4.72383e-59 2.22006e-59 1.02434e-59 4.64107e-60 2.06527e-60 9.02827e-61 3.87785e-61 1.6369e-61 6.79177e-62 2.77052e-62 1.11133e-62 4.38438e-63 1.70155e-63 6.49731e-64 2.4415e-64 9.03017e-65 3.28798e-65 1.17879e-65 4.16189e-66 1.4472e-66 4.95284e-67 1.65513e-67 4.97849e-68 0 
0 1.63966e-94 8.62938e-94 4.34117e-93 2.16047e-92 1.06494e-91 5.19903e-91 2.51365e-90 1.20348e-89 5.70537e-89 2.67797e-88 1.24441e-87 5.72431e-87 2.6064e-86 1.17457e-85 5.23839e-85 2.31182e-84 1.0095e-83 4.36127e-83 1.86393e-82 7.87974e-82 3.2947e-81 1.36237e-80 5.57063e-80 2.25214e-79 9.00159e-79 3.55654e-78 1.3889e-77 5.36044e-77 2.04438e-76 7.70374e-76 2.86793e-75 1.05465e-74 3.83056e-74 1.37397e-73 4.86627e-73 1.7016e-72 5.87359e-72 2.00112e-71 6.7283e-71 2.23222e-70 7.30637e-70 2.35905e-69 7.51236e-69 2.35913e-68 7.30456e-68 2.22964e-67 6.70811e-67 1.98893e-66 5.8106e-66 1.67235e-65 4.74093e-65 1.32358e-64 3.63843e-64 9.84627e-64 2.62266e-63 6.87457e-63 1.77295e-62 4.49794e-62 1.1223e-61 2.75359e-61 6.64197e-61 1.57475e-60 3.6691e-60 8.3994e-60 1.88881e-59 4.1715e-59 9.04626e-59 1.92588e-58 4.02423e-58 8.25165e-58 1.66003e-57 3.27584e-57 6.33979e-57 1.20306e-56 2.23813e-56 4.08118e-56 7.29319e-56 1.27706e-55 2.19079e-55 3.68154e-55 6.05963e-55 9.76805e-55 1.54198e-54 2.38363e-54 3.60807e-54 5.34797e-54 7.76245e-54 1.10342e-53 1.53627e-53 2.09534e-53 2.80028e-53 3.66804e-53 4.7109e-53 5.93463e-53 7.33697e-53 8.90671e-53 1.06236e-52 1.24593e-52 1.43786e-52 1.63419e-52 1.8308e-52 2.02364e-52 2.20895e-52 2.38348e-52 2.54456e-52 2.69017e-52 2.81893e-52 2.93002e-52 3.02317e-52 3.09856e-52 3.15672e-52 3.19855e-52 3.22519e-52 3.23799e-52 3.23846e-52 3.22821e-52 3.20884e-52 3.18193e-52 3.14893e-52 3.11115e-52 3.06976e-52 3.02578e-52 2.98012e-52 2.93365e-52 2.88719e-52 2.84161e-52 2.79776e-52 2.75652e-52 2.71876e-52 2.6853e-52 2.65691e-52 2.6343e-52 2.61807e-52 2.60876e-52 2.60675e-52 2.61225e-52 2.62517e-52 2.6451e-52 2.67115e-52 2.70193e-52 2.73554e-52 2.76962e-52 2.80153e-52 2.82855e-52 2.84814e-52 2.85827e-52 2.85761e-52 2.84578e-52 2.82335e-52 2.79187e-52 2.75366e-52 2.71156e-52 2.66859e-52 2.62766e-52 2.59119e-52 2.56091e-52 2.53776e-52 2.52184e-52 2.5125e-52 2.50852e-52 2.50832e-52 2.51018e-52 2.51247e-52 2.51375e-52 2.51295e-52 2.50942e-52 2.50295e-52 2.49376e-52 2.48248e-52 2.47008e-52 2.45778e-52 2.44695e-52 2.43902e-52 2.43532e-52 2.43699e-52 2.44489e-52 2.45955e-52 2.48112e-52 2.50948e-52 2.54422e-52 2.58474e-52 2.63028e-52 2.67996e-52 2.7327e-52 2.7872e-52 2.84175e-52 2.8942e-52 2.94181e-52 2.98127e-52 3.00877e-52 3.0202e-52 3.01141e-52 2.97856e-52 2.91855e-52 2.82942e-52 2.71058e-52 2.56313e-52 2.38982e-52 2.19498e-52 1.98423e-52 1.76406e-52 1.54131e-52 1.3227e-52 1.11425e-52 9.20996e-53 7.46624e-53 5.93421e-53 4.62285e-53 3.52886e-53 2.63904e-53 1.93318e-53 1.38696e-53 9.74489e-54 6.70487e-54 4.51743e-54 2.98045e-54 1.92563e-54 1.21839e-54 7.55014e-55 4.58263e-55 2.72466e-55 1.58709e-55 9.05814e-56 5.06628e-56 2.77728e-56 1.49246e-56 7.86342e-57 4.0628e-57 2.05885e-57 1.02351e-57 4.9924e-58 2.38981e-58 1.12289e-58 5.17992e-59 2.34641e-59 1.04392e-59 4.56251e-60 1.95928e-60 8.26868e-61 3.4301e-61 1.39893e-61 5.61031e-62 2.21292e-62 8.58652e-63 3.2781e-63 1.23158e-63 4.55431e-64 1.65798e-64 5.94305e-65 2.09792e-65 7.2938e-66 2.49581e-66 8.33916e-67 2.50804e-67 0 
0 8.15012e-94 4.2892e-93 2.1577e-92 1.0738e-91 5.29284e-91 2.58392e-90 1.24927e-89 5.98113e-89 2.83548e-88 1.3309e-87 6.18451e-87 2.84489e-86 1.29535e-85 5.83754e-85 2.60348e-84 1.149e-83 5.01745e-83 2.16771e-82 9.26471e-82 3.91679e-81 1.63777e-80 6.77256e-80 2.76939e-79 1.11969e-78 4.47558e-78 1.76843e-77 6.90656e-77 2.66577e-76 1.01676e-75 3.83174e-75 1.4266e-74 5.24668e-74 1.90583e-73 6.8367e-73 2.42166e-72 8.46891e-72 2.92367e-71 9.96219e-71 3.35001e-70 1.11157e-69 3.63889e-69 1.17509e-68 3.74266e-68 1.17551e-67 3.64036e-67 1.11138e-66 3.34432e-66 9.91769e-66 2.89798e-65 8.34237e-65 2.36546e-64 6.60535e-64 1.81616e-63 4.91594e-63 1.30971e-62 3.43384e-62 8.85799e-62 2.2478e-61 5.60996e-61 1.37676e-60 3.32173e-60 7.87756e-60 1.83591e-59 4.2039e-59 9.456e-59 2.08894e-58 4.53124e-58 9.64919e-58 2.01678e-57 4.13648e-57 8.32377e-57 1.643e-56 3.18053e-56 6.037e-56 1.12337e-55 2.04893e-55 3.66232e-55 6.41424e-55 1.10059e-54 1.84987e-54 3.04536e-54 4.90994e-54 7.75206e-54 1.1985e-53 1.81438e-53 2.68961e-53 3.90425e-53 5.5502e-53 7.72779e-53 1.05403e-52 1.40864e-52 1.84512e-52 2.3696e-52 2.98494e-52 3.68993e-52 4.47888e-52 5.34155e-52 6.26355e-52 7.22716e-52 8.2125e-52 9.19876e-52 1.01656e-51 1.10942e-51 1.19684e-51 1.27747e-51 1.35032e-51 1.4147e-51 1.47022e-51 1.51675e-51 1.55438e-51 1.5834e-51 1.60426e-51 1.61752e-51 1.62387e-51 1.62407e-51 1.61891e-51 1.60921e-51 1.59575e-51 1.57924e-51 1.56036e-51 1.53967e-51 1.51769e-51 1.49488e-51 1.47166e-51 1.44845e-51 1.42568e-51 1.40377e-51 1.38317e-51 1.36431e-51 1.34759e-51 1.33341e-51 1.32212e-51 1.31402e-51 1.30938e-51 1.30838e-51 1.31113e-51 1.3176e-51 1.32757e-51 1.3406e-51 1.356e-51 1.37281e-51 1.38986e-51 1.40582e-51 1.41933e-51 1.42913e-51 1.4342e-51 1.43387e-51 1.42795e-51 1.41673e-51 1.40099e-51 1.38188e-51 1.36083e-51 1.33936e-51 1.31891e-51 1.30069e-51 1.28558e-51 1.27403e-51 1.2661e-51 1.26146e-51 1.2595e-51 1.25943e-51 1.26039e-51 1.26154e-51 1.26219e-51 1.26179e-51 1.26002e-51 1.25677e-51 1.25216e-51 1.2465e-51 1.24027e-51 1.23409e-51 1.22865e-51 1.22466e-51 1.22279e-51 1.22361e-51 1.22754e-51 1.23486e-51 1.24564e-51 1.25981e-51 1.27718e-51 1.29743e-51 1.3202e-51 1.34503e-51 1.3714e-51 1.39865e-51 1.42594e-51 1.45217e-51 1.47599e-51 1.49575e-51 1.50953e-51 1.51527e-51 1.51089e-51 1.49447e-51 1.46445e-51 1.41982e-51 1.3603e-51 1.28643e-51 1.19956e-51 1.10188e-51 9.96192e-52 8.85745e-52 7.7398e-52 6.64262e-52 5.59629e-52 4.626e-52 3.75039e-52 2.98098e-52 2.32231e-52 1.77276e-52 1.32575e-52 9.71143e-53 6.96721e-53 4.89498e-53 3.36772e-53 2.26883e-53 1.49675e-53 9.66925e-54 6.1172e-54 3.79018e-54 2.30014e-54 1.36736e-54 7.96335e-55 4.54417e-55 2.54111e-55 1.39273e-55 7.48275e-56 3.94166e-56 2.03611e-56 1.03158e-56 5.12713e-57 2.50031e-57 1.1966e-57 5.62116e-58 2.59246e-58 1.17407e-58 5.22226e-59 2.28189e-59 9.79695e-60 4.13364e-60 1.71438e-60 6.99039e-61 2.80285e-61 1.10532e-61 4.28793e-62 1.63668e-62 6.1478e-63 2.27297e-63 8.27306e-64 2.96494e-64 1.04645e-64 3.63752e-65 1.24448e-65 4.15749e-66 1.25022e-66 0 
0 4.01232e-93 2.11153e-92 1.06218e-91 5.28594e-91 2.60544e-90 1.27193e-89 6.14945e-89 2.94416e-88 1.39573e-87 6.55122e-87 3.04427e-86 1.40038e-85 6.37637e-85 2.87358e-84 1.28161e-83 5.6563e-83 2.47006e-82 1.06719e-81 4.56129e-81 1.92843e-80 8.06394e-80 3.3348e-79 1.36372e-78 5.51399e-78 2.20417e-77 8.70993e-77 3.40191e-76 1.31316e-75 5.00902e-75 1.88787e-74 7.02944e-74 2.58551e-73 9.39278e-73 3.36982e-72 1.19379e-71 4.17537e-71 1.44163e-70 4.91292e-70 1.65232e-69 5.48343e-69 1.79536e-68 5.79861e-68 1.84717e-67 5.80269e-67 1.79732e-66 5.48812e-66 1.65179e-65 4.8994e-65 1.43192e-64 4.1229e-64 1.16929e-63 3.26588e-63 8.98165e-63 2.43171e-62 6.48015e-62 1.6994e-61 4.38488e-61 1.11298e-60 2.77846e-60 6.82049e-60 1.64603e-59 3.90463e-59 9.10242e-59 2.08486e-58 4.69085e-58 1.03655e-57 2.24906e-57 4.79066e-57 1.00157e-56 2.05482e-56 4.136e-56 8.16612e-56 1.58122e-55 3.00211e-55 5.58778e-55 1.01941e-54 1.82257e-54 3.1928e-54 5.4796e-54 9.21201e-54 1.51683e-53 2.44598e-53 3.86248e-53 5.97245e-53 9.04274e-53 1.34063e-52 1.94625e-52 2.76694e-52 3.85273e-52 5.25507e-52 7.02308e-52 9.19901e-52 1.18133e-51 1.48799e-51 1.83926e-51 2.23225e-51 2.66182e-51 3.12078e-51 3.60025e-51 4.09031e-51 4.5806e-51 5.06098e-51 5.52213e-51 5.95597e-51 6.35593e-51 6.71708e-51 7.03606e-51 7.31099e-51 7.54127e-51 7.72742e-51 7.87088e-51 7.97388e-51 8.03929e-51 8.07051e-51 8.0713e-51 8.0456e-51 7.99743e-51 7.93066e-51 7.84887e-51 7.75531e-51 7.65286e-51 7.54402e-51 7.43106e-51 7.3161e-51 7.2012e-51 7.08846e-51 6.98002e-51 6.87804e-51 6.78467e-51 6.70194e-51 6.63176e-51 6.57588e-51 6.53581e-51 6.51285e-51 6.50795e-51 6.52163e-51 6.5537e-51 6.60312e-51 6.66771e-51 6.74403e-51 6.82735e-51 6.91185e-51 6.99096e-51 7.05794e-51 7.10653e-51 7.13164e-51 7.13002e-51 7.10068e-51 7.04509e-51 6.96708e-51 6.8724e-51 6.76812e-51 6.66176e-51 6.56048e-51 6.47031e-51 6.39556e-51 6.33851e-51 6.29939e-51 6.27657e-51 6.26702e-51 6.2668e-51 6.27164e-51 6.27745e-51 6.2807e-51 6.27872e-51 6.26992e-51 6.25376e-51 6.23081e-51 6.20265e-51 6.17167e-51 6.14092e-51 6.11383e-51 6.09393e-51 6.08453e-51 6.08848e-51 6.1079e-51 6.14408e-51 6.19745e-51 6.26765e-51 6.35367e-51 6.45401e-51 6.56681e-51 6.68985e-51 6.82052e-51 6.95555e-51 7.09077e-51 7.22083e-51 7.33896e-51 7.43696e-51 7.50539e-51 7.53399e-51 7.51241e-51 7.43109e-51 7.28226e-51 7.0609e-51 6.76552e-51 6.39873e-51 5.96731e-51 5.482e-51 4.95673e-51 4.40766e-51 3.85191e-51 3.30619e-51 2.78565e-51 2.30285e-51 1.86709e-51 1.48411e-51 1.15623e-51 8.82634e-52 6.60073e-52 4.83509e-52 3.46869e-52 2.43688e-52 1.67644e-52 1.12932e-52 7.44939e-53 4.81185e-53 3.04379e-53 1.88564e-53 1.14415e-53 6.80045e-54 3.9598e-54 2.25917e-54 1.26308e-54 6.92125e-55 3.71779e-55 1.95797e-55 1.01118e-55 5.12193e-56 2.54508e-56 1.24085e-56 5.93705e-57 2.78833e-57 1.28566e-57 5.82105e-58 2.58859e-58 1.13083e-58 4.85388e-59 2.04752e-59 8.4899e-60 3.46096e-60 1.38739e-60 5.47001e-61 2.12155e-61 8.09613e-62 3.04047e-62 1.1239e-62 4.08989e-63 1.46547e-63 5.17124e-64 1.79723e-64 6.14764e-65 2.05342e-65 6.17409e-66 0 
0 1.9563e-92 1.0295e-91 5.1787e-91 2.57712e-90 1.27025e-89 6.20106e-89 2.99802e-88 1.43535e-87 6.80454e-87 3.19389e-86 1.48417e-85 6.82737e-85 3.10876e-84 1.40103e-83 6.24871e-83 2.7579e-82 1.20439e-81 5.20376e-81 2.22424e-80 9.40416e-80 3.93265e-79 1.62642e-78 6.65142e-78 2.68958e-77 1.07522e-76 4.24911e-76 1.65975e-75 6.40732e-75 2.44428e-74 9.21324e-74 3.43089e-73 1.26206e-72 4.58542e-72 1.6453e-71 5.82935e-71 2.03914e-70 7.04152e-70 2.40003e-69 8.07305e-69 2.67957e-68 8.77475e-68 2.83454e-67 9.03113e-67 2.83756e-66 8.79071e-66 2.68477e-65 8.08213e-65 2.39776e-64 7.00929e-64 2.01862e-63 5.7263e-63 1.59975e-62 4.40061e-62 1.19172e-61 3.17656e-61 8.33254e-61 2.15057e-60 5.46009e-60 1.36343e-59 3.34782e-59 8.08172e-59 1.91765e-58 4.47166e-58 1.0245e-57 2.30575e-57 5.09654e-57 1.10615e-56 2.35685e-56 4.92885e-56 1.01149e-55 2.03654e-55 4.02207e-55 7.79016e-55 1.47945e-54 2.7544e-54 5.02632e-54 8.98863e-54 1.57502e-53 2.70373e-53 4.54635e-53 7.48747e-53 1.20763e-52 1.90731e-52 2.94969e-52 4.46668e-52 6.62286e-52 9.61561e-52 1.36714e-51 1.90372e-51 2.59671e-51 3.47036e-51 4.54547e-51 5.83698e-51 7.35166e-51 9.08624e-51 1.10263e-50 1.31463e-50 1.54104e-50 1.77748e-50 2.01902e-50 2.26056e-50 2.49708e-50 2.72401e-50 2.93737e-50 3.13395e-50 3.31136e-50 3.46795e-50 3.60285e-50 3.71577e-50 3.807e-50 3.87726e-50 3.92766e-50 3.95962e-50 3.97482e-50 3.9751e-50 3.96241e-50 3.9387e-50 3.90588e-50 3.86572e-50 3.81979e-50 3.76951e-50 3.7161e-50 3.66068e-50 3.60428e-50 3.54791e-50 3.49261e-50 3.43941e-50 3.38939e-50 3.34359e-50 3.30301e-50 3.26859e-50 3.24119e-50 3.22155e-50 3.2103e-50 3.20792e-50 3.21464e-50 3.23041e-50 3.25469e-50 3.28641e-50 3.3239e-50 3.36482e-50 3.40633e-50 3.44519e-50 3.47809e-50 3.50196e-50 3.5143e-50 3.51351e-50 3.4991e-50 3.4718e-50 3.43349e-50 3.387e-50 3.3358e-50 3.2836e-50 3.2339e-50 3.18968e-50 3.15304e-50 3.12511e-50 3.10598e-50 3.09486e-50 3.09025e-50 3.09022e-50 3.09265e-50 3.09554e-50 3.09715e-50 3.09619e-50 3.09185e-50 3.08388e-50 3.07257e-50 3.05868e-50 3.04341e-50 3.02824e-50 3.01487e-50 3.00504e-50 3.00037e-50 3.00226e-50 3.01175e-50 3.02949e-50 3.05567e-50 3.09013e-50 3.13236e-50 3.18162e-50 3.23699e-50 3.2974e-50 3.36156e-50 3.42786e-50 3.49428e-50 3.55817e-50 3.61623e-50 3.66442e-50 3.69811e-50 3.71224e-50 3.70172e-50 3.66183e-50 3.58873e-50 3.47993e-50 3.33467e-50 3.15422e-50 2.94189e-50 2.70294e-50 2.44424e-50 2.17374e-50 1.89987e-50 1.63087e-50 1.37423e-50 1.13614e-50 9.21212e-51 7.32291e-51 5.70524e-51 4.35531e-51 3.25709e-51 2.3858e-51 1.7115e-51 1.20232e-51 8.27072e-52 5.57098e-52 3.67442e-52 2.37315e-52 1.50095e-52 9.29704e-53 5.64024e-53 3.35176e-53 1.9513e-53 1.11305e-53 6.22162e-54 3.4085e-54 1.83048e-54 9.63799e-55 4.9763e-55 2.52003e-55 1.25189e-55 6.10205e-56 2.9189e-56 1.37051e-56 6.31762e-57 2.8597e-57 1.27137e-57 5.55261e-58 2.38277e-58 1.00488e-58 4.16566e-59 1.69775e-59 6.80409e-60 2.68201e-60 1.03998e-60 3.96782e-61 1.48977e-61 5.50567e-62 2.00311e-62 7.17596e-63 2.53169e-63 8.797e-64 3.00856e-64 1.00473e-64 3.02052e-65 0 
0 9.446e-92 4.97085e-91 2.50045e-90 1.2443e-89 6.13301e-89 2.99398e-88 1.44749e-87 6.93009e-87 3.28535e-86 1.54208e-85 7.16598e-85 3.29649e-84 1.50105e-83 6.76493e-83 3.01731e-82 1.33175e-81 5.81606e-81 2.51302e-80 1.07419e-79 4.54196e-79 1.89947e-78 7.85609e-78 3.21306e-77 1.29933e-76 5.19475e-76 2.05307e-75 8.02021e-75 3.09643e-74 1.18135e-73 4.45335e-73 1.65856e-72 6.10177e-72 2.21721e-71 7.95663e-71 2.81944e-70 9.86398e-70 3.40671e-69 1.16132e-68 3.907e-68 1.29701e-67 4.24805e-67 1.37251e-66 4.37377e-66 1.3745e-65 4.25901e-65 1.30102e-64 3.91736e-64 1.16243e-63 3.39887e-63 9.79078e-63 2.77805e-62 7.76291e-62 2.13596e-61 5.78584e-61 1.54263e-60 4.04761e-60 1.04494e-59 2.65375e-59 6.62848e-59 1.62805e-58 3.9313e-58 9.33103e-58 2.1765e-57 4.98806e-57 1.12295e-56 2.48288e-56 5.39044e-56 1.14888e-55 2.40337e-55 4.93363e-55 9.93635e-55 1.96296e-54 3.80308e-54 7.22457e-54 1.34543e-53 2.45585e-53 4.39297e-53 7.69947e-53 1.32203e-52 2.22352e-52 3.66275e-52 5.9087e-52 9.33383e-52 1.44373e-51 2.18654e-51 3.24245e-51 4.70813e-51 6.69449e-51 9.3225e-51 1.27165e-50 1.69949e-50 2.22594e-50 2.85826e-50 3.59969e-50 4.44856e-50 5.39772e-50 6.43453e-50 7.54141e-50 8.69679e-50 9.87654e-50 1.10556e-49 1.22096e-49 1.33161e-49 1.43558e-49 1.53132e-49 1.61766e-49 1.69383e-49 1.7594e-49 1.81426e-49 1.85855e-49 1.89264e-49 1.91707e-49 1.93254e-49 1.93987e-49 1.93995e-49 1.93374e-49 1.92218e-49 1.90619e-49 1.88665e-49 1.86431e-49 1.83986e-49 1.81389e-49 1.78695e-49 1.75953e-49 1.73213e-49 1.70525e-49 1.67939e-49 1.65508e-49 1.63281e-49 1.61309e-49 1.59637e-49 1.58306e-49 1.57351e-49 1.56805e-49 1.5669e-49 1.57019e-49 1.57786e-49 1.58968e-49 1.60512e-49 1.62337e-49 1.64329e-49 1.66349e-49 1.6824e-49 1.69842e-49 1.71004e-49 1.71605e-49 1.71566e-49 1.70865e-49 1.69537e-49 1.67672e-49 1.65411e-49 1.6292e-49 1.60381e-49 1.57965e-49 1.55816e-49 1.54037e-49 1.52682e-49 1.51755e-49 1.51218e-49 1.50998e-49 1.51e-49 1.51121e-49 1.51264e-49 1.51343e-49 1.51296e-49 1.51084e-49 1.50695e-49 1.50142e-49 1.49464e-49 1.48717e-49 1.47976e-49 1.47323e-49 1.46841e-49 1.46611e-49 1.467e-49 1.47161e-49 1.48022e-49 1.49295e-49 1.50971e-49 1.53025e-49 1.55421e-49 1.58115e-49 1.61054e-49 1.64175e-49 1.67402e-49 1.70634e-49 1.73745e-49 1.76572e-49 1.78921e-49 1.80565e-49 1.81257e-49 1.8075e-49 1.78812e-49 1.75255e-49 1.69957e-49 1.62879e-49 1.54082e-49 1.43727e-49 1.3207e-49 1.19444e-49 1.06238e-49 9.28639e-50 7.97241e-50 6.71848e-50 5.55496e-50 4.5044e-50 3.58084e-50 2.78991e-50 2.12981e-50 1.59276e-50 1.16666e-50 8.36894e-51 5.8788e-51 4.04367e-51 2.72347e-51 1.79609e-51 1.15987e-51 7.33476e-52 4.54247e-52 2.7553e-52 1.63705e-52 9.52855e-53 5.43405e-53 3.0368e-53 1.66332e-53 8.9305e-54 4.70101e-54 2.42662e-54 1.22854e-54 6.10155e-55 2.97328e-55 1.42189e-55 6.67442e-56 3.07588e-56 1.39195e-56 6.18671e-57 2.70128e-57 1.15889e-57 4.8861e-58 2.02497e-58 8.25086e-59 3.30589e-59 1.30278e-59 5.05048e-60 1.92644e-60 7.23141e-61 2.67187e-61 9.71882e-62 3.48093e-62 1.22782e-62 4.26549e-63 1.4585e-63 4.86986e-64 1.4638e-64 0 
0 4.51646e-91 2.3767e-90 1.19551e-89 5.94918e-89 2.93226e-88 1.43145e-87 6.92058e-87 3.31335e-86 1.57077e-85 7.37299e-85 3.42626e-84 1.57617e-83 7.17724e-83 3.23474e-82 1.44282e-81 6.36839e-81 2.78134e-80 1.20183e-79 5.1375e-79 2.17239e-78 9.08562e-78 3.75801e-77 1.5371e-76 6.21638e-76 2.48553e-75 9.82417e-75 3.83813e-74 1.48197e-73 5.65462e-73 2.13186e-72 7.94062e-72 2.92169e-71 1.0618e-70 3.81087e-70 1.35058e-69 4.72579e-69 1.6324e-68 5.56563e-68 1.87274e-67 6.21806e-67 2.03695e-66 6.58247e-66 2.09804e-65 6.59463e-65 2.04384e-64 6.24475e-64 1.88071e-63 5.5821e-63 1.63255e-62 4.70387e-62 1.33501e-61 3.73149e-61 1.02699e-60 2.78262e-60 7.42111e-60 1.94772e-59 5.02973e-59 1.27773e-58 3.19242e-58 7.84341e-58 1.89454e-57 4.49811e-57 1.04953e-56 2.40604e-56 5.41838e-56 1.1984e-55 2.6026e-55 5.54877e-55 1.16112e-54 2.3843e-54 4.80348e-54 9.49238e-54 1.83963e-53 3.49572e-53 6.51196e-53 1.18898e-52 2.12742e-52 3.72966e-52 6.40561e-52 1.07762e-51 1.77553e-51 2.86486e-51 4.52642e-51 7.00255e-51 1.0607e-50 1.57313e-50 2.28448e-50 3.24858e-50 4.52412e-50 6.17138e-50 8.24777e-50 1.08024e-49 1.38703e-49 1.74669e-49 2.15835e-49 2.61852e-49 3.121e-49 3.65721e-49 4.21667e-49 4.78763e-49 5.35796e-49 5.91581e-49 6.45037e-49 6.95236e-49 7.41429e-49 7.83061e-49 8.19766e-49 8.51344e-49 8.77748e-49 8.99051e-49 9.15435e-49 9.27165e-49 9.34582e-49 9.38078e-49 9.3809e-49 9.35073e-49 9.29486e-49 9.21775e-49 9.1235e-49 9.01583e-49 8.89801e-49 8.77292e-49 8.64314e-49 8.51108e-49 8.37912e-49 8.24965e-49 8.12512e-49 8.00804e-49 7.90084e-49 7.80588e-49 7.72536e-49 7.66126e-49 7.61534e-49 7.58908e-49 7.58359e-49 7.59945e-49 7.63648e-49 7.69348e-49 7.76795e-49 7.85593e-49 7.952e-49 8.04943e-49 8.14067e-49 8.21793e-49 8.27397e-49 8.30295e-49 8.30111e-49 8.26731e-49 8.20326e-49 8.11337e-49 8.00434e-49 7.8843e-49 7.76196e-49 7.64558e-49 7.5421e-49 7.45649e-49 7.39134e-49 7.34689e-49 7.32123e-49 7.31081e-49 7.31106e-49 7.31705e-49 7.32402e-49 7.3279e-49 7.32564e-49 7.31537e-49 7.29653e-49 7.26977e-49 7.23693e-49 7.20079e-49 7.1649e-49 7.13322e-49 7.10985e-49 7.09863e-49 7.10283e-49 7.12492e-49 7.16639e-49 7.22771e-49 7.30846e-49 7.40746e-49 7.52296e-49 7.6528e-49 7.79447e-49 7.94494e-49 8.1005e-49 8.25638e-49 8.40644e-49 8.54292e-49 8.65636e-49 8.73586e-49 8.76952e-49 8.7453e-49 8.65205e-49 8.48061e-49 8.22501e-49 7.88336e-49 7.45848e-49 6.95812e-49 6.39459e-49 5.78404e-49 5.14521e-49 4.49802e-49 3.86201e-49 3.2549e-49 2.69144e-49 2.18259e-49 1.73517e-49 1.35196e-49 1.0321e-49 7.71844e-50 5.65345e-50 4.05527e-50 2.84846e-50 1.95912e-50 1.31935e-50 8.69991e-51 5.61739e-51 3.55176e-51 2.19926e-51 1.33374e-51 7.92279e-52 4.61053e-52 2.62876e-52 1.46873e-52 8.04262e-53 4.31706e-53 2.27192e-53 1.17244e-53 5.9342e-54 2.94642e-54 1.4354e-54 6.86247e-55 3.22039e-55 1.48369e-55 6.71238e-56 2.98259e-56 1.30192e-56 5.58389e-57 2.35364e-57 9.75169e-58 3.97233e-58 1.59118e-58 6.2689e-59 2.42965e-59 9.26528e-60 3.47713e-60 1.28443e-60 4.67096e-61 1.67259e-61 5.89837e-62 2.04868e-62 7.00357e-63 2.338e-63 7.02651e-64 0 
0 2.1382e-90 1.12517e-89 5.65971e-89 2.81639e-88 1.38815e-87 6.77657e-87 3.27626e-86 1.56858e-85 7.43632e-85 3.49056e-84 1.62211e-83 7.46235e-83 3.39814e-82 1.53158e-81 6.83166e-81 3.01553e-80 1.31707e-79 5.69143e-79 2.43307e-78 1.02889e-77 4.30343e-77 1.78012e-76 7.2816e-76 2.9451e-75 1.17766e-74 4.65521e-74 1.81889e-73 7.02382e-73 2.68032e-72 1.01064e-71 3.76482e-71 1.38542e-70 5.03559e-70 1.80757e-69 6.40704e-69 2.24223e-68 7.74645e-68 2.64159e-67 8.89011e-67 2.95233e-66 9.67326e-66 3.12657e-65 9.96744e-65 3.13366e-64 9.71413e-64 2.96873e-63 8.94293e-63 2.65497e-62 7.7667e-62 2.23839e-61 6.35448e-61 1.77661e-60 4.89096e-60 1.32558e-59 3.53627e-59 9.28389e-59 2.39816e-58 6.09399e-58 1.52306e-57 3.74316e-57 9.04433e-57 2.14804e-56 5.01355e-56 1.14973e-55 2.59004e-55 5.73035e-55 1.24489e-54 2.655e-54 5.55762e-54 1.1416e-53 2.30066e-53 4.5479e-53 8.81666e-53 1.67589e-52 3.12287e-52 5.70357e-52 1.02082e-51 1.79014e-51 3.07533e-51 5.17493e-51 8.52844e-51 1.37639e-50 2.1751e-50 3.36558e-50 5.09878e-50 7.56308e-50 1.09843e-49 1.56212e-49 2.17561e-49 2.96787e-49 3.96644e-49 5.19487e-49 6.66986e-49 8.39866e-49 1.03769e-48 1.25875e-48 1.50006e-48 1.75745e-48 2.02586e-48 2.29966e-48 2.57298e-48 2.84017e-48 3.09604e-48 3.33615e-48 3.55695e-48 3.75582e-48 3.93104e-48 4.08169e-48 4.20756e-48 4.30905e-48 4.38705e-48 4.44284e-48 4.47805e-48 4.49457e-48 4.49448e-48 4.47997e-48 4.45322e-48 4.41634e-48 4.37132e-48 4.31991e-48 4.26366e-48 4.20396e-48 4.14203e-48 4.07901e-48 4.01605e-48 3.95427e-48 3.89486e-48 3.839e-48 3.78785e-48 3.74256e-48 3.70415e-48 3.67357e-48 3.65168e-48 3.63917e-48 3.63656e-48 3.64416e-48 3.66186e-48 3.68909e-48 3.72468e-48 3.76671e-48 3.81262e-48 3.85918e-48 3.90278e-48 3.9397e-48 3.96649e-48 3.98034e-48 3.97947e-48 3.96332e-48 3.93273e-48 3.88979e-48 3.83772e-48 3.78039e-48 3.72198e-48 3.66644e-48 3.61708e-48 3.57627e-48 3.54525e-48 3.52412e-48 3.51197e-48 3.50709e-48 3.5073e-48 3.51022e-48 3.5136e-48 3.51548e-48 3.5144e-48 3.50947e-48 3.50043e-48 3.4876e-48 3.47184e-48 3.45451e-48 3.43729e-48 3.42208e-48 3.41084e-48 3.40542e-48 3.40737e-48 3.41788e-48 3.43766e-48 3.46692e-48 3.50548e-48 3.55275e-48 3.6079e-48 3.66991e-48 3.73757e-48 3.80944e-48 3.88375e-48 3.95823e-48 4.02996e-48 4.09523e-48 4.14953e-48 4.18764e-48 4.20387e-48 4.19244e-48 4.14801e-48 4.06616e-48 3.94401e-48 3.78062e-48 3.57732e-48 3.33778e-48 3.06788e-48 2.77534e-48 2.46914e-48 2.15884e-48 1.8538e-48 1.56255e-48 1.29217e-48 1.04795e-48 8.33172e-49 6.49188e-49 4.95606e-49 3.7063e-49 2.71465e-49 1.94715e-49 1.3676e-49 9.40524e-50 6.3332e-50 4.17562e-50 2.69573e-50 1.70418e-50 1.05504e-50 6.39703e-51 3.79922e-51 2.2104e-51 1.25999e-51 7.03808e-52 3.85299e-52 2.06764e-52 1.08783e-52 5.61229e-53 2.83982e-53 1.40961e-53 6.86518e-54 3.28122e-54 1.53935e-54 7.09e-55 3.20665e-55 1.42444e-55 6.21596e-56 2.66524e-56 1.12309e-56 4.65194e-57 1.89443e-57 7.58638e-58 2.98806e-58 1.15778e-58 4.41395e-59 1.65607e-59 6.11588e-60 2.22356e-60 7.96029e-61 2.80654e-61 9.74572e-62 3.33093e-62 1.11173e-62 3.34058e-63 0 