# vtk DataFile Version 3.0
Gray-Scott Simulation Output
ASCII
DATASET STRUCTURED_POINTS
DIMENSIONS 256 256 1
SPACING 1.0 1.0 1.0
ORIGIN 0 0 0
POINT_DATA 65536
SCALARS u double
LOOKUP_TABLE default
0 0 0 0 0 0 0 0 0 0 0 0 0 0 0 0 0 0 0 0 0 0 0 0 0 0 0 0 0 0 0 0 0 0 0 0 0 0 0 0 0 0 0 0 0 0 0 0 0 0 0 0 0 0 0 0 0 0 0 0 0 0 0 0 0 0 0 0 0 0 0 0 0 0 0 0 0 0 0 0 0 0 0 0 0 0 0 0 0 0 0 0 0 0 0 0 0 0 0 0 0 0 0 0 0 0 0 0 0 0 0 0 0 0 0 0 0 0 0 0 0 0 0 0 0 0 0 0 0 0 0 0 0 0 0 0 0 0 0 0 0 0 0 0 0 0 0 0 0 0 0 0 0 0 0 0 0 0 0 0 0 0 0 0 0 0 0 0 0 0 0 0 0 0 0 0 0 0 0 0 0 0 0 0 0 0 0 0 0 0 0 0 0 0 0 0 0 0 0 0 0 0 0 0 0 0 0 0 0 0 0 0 0 0 0 0 0 0 0 0 0 0 0 0 0 0 0 0 0 0 0 0 0 0 0 0 0 0 0 0 0 0 0 0 0 0 0 0 0 0 0 0 0 0 0 0 
0 1.50064e-80 5.77454e-80 2.05825e-79 7.23795e-79 2.52257e-78 8.71582e-78 2.98533e-77 1.01361e-76 3.41126e-76 1.13788e-75 3.76174e-75 1.23243e-74 4.00115e-74 1.28715e-73 4.10268e-73 1.29559e-72 4.05318e-72 1.2561e-71 3.85585e-71 1.17234e-70 3.5301e-70 1.05267e-69 3.10838e-69 9.08822e-69 2.63083e-68 7.53947e-68 2.13889e-67 6.00618e-67 1.6693e-66 4.5916e-66 1.24982e-65 3.36623e-65 8.97057e-65 2.36503e-64 6.16811e-64 1.59122e-63 4.06003e-63 1.02449e-62 2.5564e-62 6.30737e-62 1.53859e-61 3.71034e-61 8.84454e-61 2.08384e-60 4.85221e-60 1.11649e-59 2.53844e-59 5.70202e-59 1.26531e-58 2.77348e-58 6.00438e-58 1.28374e-57 2.71025e-57 5.64957e-57 1.16265e-56 2.3619e-56 4.73596e-56 9.37217e-56 1.83025e-55 3.52673e-55 6.70468e-55 1.25742e-54 2.32614e-54 4.24421e-54 7.63692e-54 1.35505e-53 2.37063e-53 4.08887e-53 6.95235e-53 1.16522e-52 1.92484e-52 3.13369e-52 5.02757e-52 7.94819e-52 1.23811e-51 1.90021e-51 2.87326e-51 4.28018e-51 6.28128e-51 9.08078e-51 1.29325e-50 1.81439e-50 2.50769e-50 3.41452e-50 4.58056e-50 6.05447e-50 7.88574e-50 1.01221e-49 1.28063e-49 1.59726e-49 1.96434e-49 2.38259e-49 2.85095e-49 3.36642e-49 3.92405e-49 4.51701e-49 5.13686e-49 5.77391e-49 6.41767e-49 7.05739e-49 7.68256e-49 8.28342e-49 8.85132e-49 9.37908e-49 9.86111e-49 1.02935e-48 1.0674e-48 1.10017e-48 1.12772e-48 1.15021e-48 1.16787e-48 1.18102e-48 1.18999e-48 1.19517e-48 1.19695e-48 1.19572e-48 1.19186e-48 1.18577e-48 1.1778e-48 1.16831e-48 1.15764e-48 1.1461e-48 1.134e-48 1.12163e-48 1.10926e-48 1.09717e-48 1.08562e-48 1.07484e-48 1.06506e-48 1.05649e-48 1.04931e-48 1.04368e-48 1.03969e-48 1.03741e-48 1.03684e-48 1.03791e-48 1.04049e-48 1.04435e-48 1.04922e-48 1.05475e-48 1.06054e-48 1.06616e-48 1.07119e-48 1.07523e-48 1.07794e-48 1.07905e-48 1.07843e-48 1.07605e-48 1.07199e-48 1.06647e-48 1.05978e-48 1.05229e-48 1.04438e-48 1.03646e-48 1.02886e-48 1.02188e-48 1.01571e-48 1.01044e-48 1.0061e-48 1.00259e-48 9.99789e-49 9.97513e-49 9.95571e-49 9.93784e-49 9.92006e-49 9.90146e-49 9.88172e-49 9.86121e-49 9.84097e-49 9.82256e-49 9.80801e-49 9.79962e-49 9.79978e-49 9.8108e-49 9.83472e-49 9.87321e-49 9.92741e-49 9.99784e-49 1.00844e-48 1.01861e-48 1.03015e-48 1.0428e-48 1.05624e-48 1.07005e-48 1.08372e-48 1.09663e-48 1.10808e-48 1.11729e-48 1.12339e-48 1.12549e-48 1.12269e-48 1.11414e-48 1.0991e-48 1.07699e-48 1.04743e-48 1.01032e-48 9.65848e-49 9.14498e-49 8.57066e-49 7.94609e-49 7.28405e-49 6.59877e-49 5.90519e-49 5.21813e-49 4.55148e-49 3.9175e-49 3.32632e-49 2.78553e-49 2.3001e-49 1.87241e-49 1.50244e-49 1.18817e-49 9.25956e-50 7.11042e-50 5.37971e-50 4.0101e-50 2.94488e-50 2.1305e-50 1.51843e-50 1.06611e-50 7.37413e-51 5.02494e-51 3.37344e-51 2.23129e-51 1.45412e-51 9.3375e-52 5.90842e-52 3.68428e-52 2.26416e-52 1.37141e-52 8.18781e-53 4.8189e-53 2.79605e-53 1.59956e-53 9.02305e-54 5.01935e-54 2.75375e-54 1.49015e-54 7.95441e-55 4.18892e-55 2.17649e-55 1.11589e-55 5.64595e-56 2.81937e-56 1.38967e-56 6.76183e-57 3.24827e-57 1.54071e-57 7.21617e-58 3.33734e-58 1.52321e-58 6.83745e-59 2.96094e-59 1.09859e-59 0 
0 5.76736e-80 2.2196e-79 7.91266e-79 2.78299e-78 9.70091e-78 3.35236e-77 1.14845e-76 3.90004e-76 1.31279e-75 4.37986e-75 1.44823e-74 4.74567e-74 1.54103e-73 4.95849e-73 1.58082e-72 4.99318e-72 1.56245e-71 4.84324e-71 1.48709e-70 4.52247e-70 1.36213e-69 4.0629e-69 1.20003e-68 3.50957e-68 1.01622e-67 2.91311e-67 8.26662e-67 2.32202e-66 6.45554e-66 1.7762e-65 4.83625e-65 1.303e-64 3.47344e-64 9.16047e-64 2.3899e-63 6.16742e-63 1.57417e-62 3.9736e-62 9.91879e-62 2.44813e-61 5.97404e-61 1.44118e-60 3.43672e-60 8.10025e-60 1.88686e-59 4.34334e-59 9.87884e-59 2.21994e-58 4.92813e-58 1.08065e-57 2.34048e-57 5.00601e-57 1.05731e-56 2.20488e-56 4.53938e-56 9.22548e-56 1.85061e-55 3.66374e-55 7.15769e-55 1.37979e-54 2.62418e-54 4.92347e-54 9.11169e-54 1.66314e-53 2.99377e-53 5.31398e-53 9.30015e-53 1.60467e-52 2.72939e-52 4.57604e-52 7.5617e-52 1.23145e-51 1.97628e-51 3.12523e-51 4.86952e-51 7.47543e-51 1.1306e-50 1.68455e-50 2.47257e-50 3.57513e-50 5.09225e-50 7.145e-50 9.87593e-50 1.34478e-49 1.80405e-49 2.3845e-49 3.10558e-49 3.98597e-49 5.04237e-49 6.28813e-49 7.73181e-49 9.37598e-49 1.12162e-48 1.32403e-48 1.54286e-48 1.77537e-48 2.01824e-48 2.26762e-48 2.51939e-48 2.76932e-48 3.0133e-48 3.2475e-48 3.46859e-48 3.67377e-48 3.86092e-48 4.02854e-48 4.17581e-48 4.30246e-48 4.40874e-48 4.4953e-48 4.56312e-48 4.61342e-48 4.64757e-48 4.66705e-48 4.67338e-48 4.66809e-48 4.6527e-48 4.62868e-48 4.59744e-48 4.56035e-48 4.5187e-48 4.47371e-48 4.42658e-48 4.37841e-48 4.3303e-48 4.28328e-48 4.23834e-48 4.19641e-48 4.15839e-48 4.12508e-48 4.09718e-48 4.07528e-48 4.0598e-48 4.05096e-48 4.04878e-48 4.05299e-48 4.06305e-48 4.07814e-48 4.09715e-48 4.11873e-48 4.14131e-48 4.16325e-48 4.18289e-48 4.19866e-48 4.20924e-48 4.21363e-48 4.21126e-48 4.20201e-48 4.18625e-48 4.16478e-48 4.13876e-48 4.10962e-48 4.07889e-48 4.04808e-48 4.01857e-48 3.99145e-48 3.96748e-48 3.94705e-48 3.9302e-48 3.91662e-48 3.90578e-48 3.89697e-48 3.88945e-48 3.88252e-48 3.87561e-48 3.86836e-48 3.86066e-48 3.85265e-48 3.84473e-48 3.83752e-48 3.83181e-48 3.8285e-48 3.82852e-48 3.83278e-48 3.84207e-48 3.85705e-48 3.87816e-48 3.90561e-48 3.93935e-48 3.97906e-48 4.0241e-48 4.07354e-48 4.12611e-48 4.18019e-48 4.23379e-48 4.28454e-48 4.32971e-48 4.36622e-48 4.39071e-48 4.39969e-48 4.38964e-48 4.35723e-48 4.2995e-48 4.21414e-48 4.09966e-48 3.9556e-48 3.78264e-48 3.58265e-48 3.3587e-48 3.11491e-48 2.85625e-48 2.58829e-48 2.31689e-48 2.04786e-48 1.78667e-48 1.53815e-48 1.3063e-48 1.09412e-48 9.03593e-49 7.35672e-49 5.90375e-49 4.66921e-49 3.63899e-49 2.79446e-49 2.11429e-49 1.57598e-49 1.1573e-49 8.372e-50 5.96624e-50 4.18851e-50 2.89674e-50 1.97361e-50 1.32473e-50 8.76042e-51 5.7079e-51 3.66442e-51 2.31814e-51 1.44513e-51 8.87856e-52 5.37622e-52 3.20885e-52 1.88797e-52 1.0951e-52 6.26276e-53 3.53161e-53 1.96389e-53 1.07707e-53 5.82634e-54 3.10898e-54 1.63664e-54 8.50062e-55 4.35666e-55 2.20348e-55 1.09993e-55 5.41954e-56 2.63604e-56 1.26584e-56 6.00187e-57 2.81003e-57 1.29911e-57 5.92718e-58 2.65967e-58 1.15139e-58 4.27092e-59 0 
0 2.05275e-79 7.90135e-79 2.81727e-78 9.91058e-78 3.45529e-77 1.19429e-76 4.09225e-76 1.38999e-75 4.67985e-75 1.56169e-74 5.16502e-74 1.69291e-73 5.49862e-73 1.7697e-72 5.64341e-72 1.783e-71 5.58078e-71 1.73039e-70 5.31455e-70 1.6167e-69 4.87081e-69 1.45328e-68 4.29375e-68 1.25613e-67 3.63837e-67 1.04332e-66 2.96166e-66 8.32186e-66 2.3144e-65 6.37019e-65 1.7351e-64 4.6765e-64 1.24709e-63 3.29021e-63 8.58722e-63 2.21692e-62 5.66073e-62 1.42949e-61 3.56973e-61 8.81441e-61 2.15185e-60 5.19339e-60 1.23898e-59 2.92155e-59 6.80848e-59 1.56795e-58 3.56789e-58 8.02134e-58 1.78152e-57 3.9084e-57 8.46881e-57 1.81224e-56 3.82942e-56 7.98961e-56 1.64568e-55 3.34617e-55 6.71555e-55 1.33015e-54 2.5999e-54 5.01421e-54 9.54092e-54 1.7909e-53 3.31589e-53 6.05522e-53 1.09047e-52 1.93646e-52 3.39052e-52 5.85256e-52 9.95875e-52 1.67033e-51 2.7612e-51 4.49836e-51 7.22168e-51 1.14239e-50 1.78055e-50 2.73419e-50 4.13635e-50 6.16449e-50 9.05012e-50 1.30881e-49 1.8645e-49 2.61642e-49 3.61678e-49 4.92516e-49 6.6073e-49 8.73303e-49 1.13732e-48 1.4596e-48 1.84618e-48 2.30188e-48 2.82974e-48 3.4306e-48 4.10268e-48 4.84143e-48 5.63945e-48 6.48669e-48 7.37079e-48 8.27766e-48 9.19217e-48 1.00989e-47 1.09828e-47 1.18302e-47 1.26288e-47 1.33689e-47 1.40427e-47 1.46453e-47 1.51736e-47 1.56271e-47 1.60068e-47 1.63153e-47 1.65563e-47 1.67342e-47 1.68542e-47 1.69216e-47 1.69419e-47 1.69208e-47 1.68635e-47 1.67754e-47 1.66616e-47 1.65269e-47 1.6376e-47 1.62132e-47 1.60428e-47 1.58688e-47 1.5695e-47 1.55253e-47 1.53631e-47 1.52118e-47 1.50746e-47 1.49544e-47 1.48538e-47 1.47749e-47 1.47191e-47 1.46873e-47 1.46796e-47 1.46949e-47 1.47315e-47 1.47862e-47 1.48551e-47 1.49332e-47 1.5015e-47 1.50945e-47 1.51657e-47 1.52229e-47 1.52614e-47 1.52774e-47 1.5269e-47 1.52357e-47 1.51789e-47 1.51014e-47 1.50076e-47 1.49024e-47 1.47915e-47 1.46804e-47 1.4574e-47 1.44762e-47 1.43899e-47 1.43164e-47 1.42558e-47 1.4207e-47 1.41681e-47 1.41365e-47 1.41095e-47 1.40846e-47 1.40597e-47 1.40335e-47 1.40056e-47 1.39765e-47 1.39478e-47 1.39215e-47 1.39007e-47 1.38885e-47 1.38885e-47 1.39037e-47 1.39372e-47 1.39913e-47 1.40676e-47 1.41669e-47 1.42891e-47 1.4433e-47 1.45963e-47 1.47757e-47 1.49667e-47 1.51634e-47 1.53588e-47 1.55443e-47 1.571e-47 1.58448e-47 1.59365e-47 1.59725e-47 1.59399e-47 1.58265e-47 1.56215e-47 1.53163e-47 1.49053e-47 1.43867e-47 1.37626e-47 1.30398e-47 1.22292e-47 1.13457e-47 1.04072e-47 9.43413e-48 8.44767e-48 7.46909e-48 6.51835e-48 5.61316e-48 4.7682e-48 3.99457e-48 3.29958e-48 2.68681e-48 2.15643e-48 1.70566e-48 1.32941e-48 1.02092e-48 7.72432e-49 5.75755e-49 4.22773e-49 3.05814e-49 2.17912e-49 1.52961e-49 1.0577e-49 7.20499e-50 4.83514e-50 3.19674e-50 2.08234e-50 1.33648e-50 8.45224e-51 5.26753e-51 3.23521e-51 1.95835e-51 1.16845e-51 6.87225e-52 3.9847e-52 2.27794e-52 1.28404e-52 7.13756e-53 3.9129e-53 2.11578e-53 1.12852e-53 5.93829e-54 3.08299e-54 1.57939e-54 7.98466e-55 3.98403e-55 1.96215e-55 9.53967e-56 4.57901e-56 2.17016e-56 1.01561e-56 4.69328e-57 2.1404e-57 9.60055e-58 4.15457e-58 1.54064e-58 0 
0 7.20799e-79 2.77492e-78 9.89599e-78 3.4819e-77 1.2142e-76 4.19768e-76 1.43865e-75 4.88765e-75 1.64596e-74 5.49394e-74 1.81746e-73 5.95848e-73 1.93582e-72 6.23193e-72 1.98784e-71 6.28215e-71 1.96686e-70 6.10025e-70 1.87412e-69 5.70283e-69 1.71868e-68 5.12954e-68 1.51603e-67 4.43657e-67 1.28548e-66 3.68744e-66 1.04711e-65 2.94329e-65 8.18859e-65 2.25468e-64 6.14358e-64 1.65647e-63 4.41909e-63 1.16635e-62 3.04535e-62 7.86525e-62 2.00918e-61 5.0759e-61 1.26811e-60 3.1326e-60 7.65099e-60 1.84737e-59 4.40927e-59 1.0402e-58 2.42525e-58 5.58785e-58 1.27214e-57 2.86141e-57 6.35823e-57 1.39559e-56 3.0255e-56 6.47751e-56 1.36944e-55 2.8586e-55 5.89107e-55 1.19844e-54 2.4064e-54 4.76877e-54 9.3257e-54 1.79947e-53 3.42569e-53 6.43344e-53 1.19175e-52 2.17732e-52 3.92296e-52 6.96962e-52 1.22086e-51 2.10833e-51 3.5891e-51 6.02233e-51 9.95946e-51 1.62316e-50 2.60678e-50 4.12509e-50 6.43155e-50 9.87923e-50 1.49497e-49 2.22855e-49 3.27249e-49 4.73354e-49 6.74437e-49 9.4655e-49 1.30858e-48 1.78206e-48 2.39076e-48 3.15986e-48 4.11492e-48 5.28039e-48 6.67797e-48 8.32475e-48 1.02314e-47 1.24005e-47 1.48251e-47 1.74883e-47 2.03629e-47 2.34119e-47 2.65903e-47 2.9847e-47 3.31271e-47 3.6375e-47 3.95367e-47 4.25631e-47 4.54109e-47 4.80453e-47 5.04396e-47 5.25765e-47 5.44465e-47 5.60481e-47 5.73858e-47 5.84697e-47 5.93133e-47 5.99334e-47 6.03482e-47 6.05772e-47 6.064e-47 6.05565e-47 6.03458e-47 6.00267e-47 5.96171e-47 5.91341e-47 5.8594e-47 5.80125e-47 5.74042e-47 5.67836e-47 5.61641e-47 5.55591e-47 5.49812e-47 5.44423e-47 5.39537e-47 5.35257e-47 5.31675e-47 5.28865e-47 5.26882e-47 5.25754e-47 5.25484e-47 5.26038e-47 5.27347e-47 5.29305e-47 5.31769e-47 5.34565e-47 5.37491e-47 5.40336e-47 5.42883e-47 5.44932e-47 5.46311e-47 5.46891e-47 5.46597e-47 5.45416e-47 5.43393e-47 5.40634e-47 5.3729e-47 5.33544e-47 5.29594e-47 5.25637e-47 5.21849e-47 5.18372e-47 5.15302e-47 5.12691e-47 5.10541e-47 5.08813e-47 5.07434e-47 5.06316e-47 5.05359e-47 5.04474e-47 5.03587e-47 5.02652e-47 5.01655e-47 5.00613e-47 4.99581e-47 4.98638e-47 4.97889e-47 4.97448e-47 4.97439e-47 4.97978e-47 4.99169e-47 5.01098e-47 5.03822e-47 5.07371e-47 5.11739e-47 5.16885e-47 5.22733e-47 5.29164e-47 5.36017e-47 5.43088e-47 5.50122e-47 5.56819e-47 5.62825e-47 5.67745e-47 5.71143e-47 5.72563e-47 5.71544e-47 5.67644e-47 5.60471e-47 5.49711e-47 5.35155e-47 5.1673e-47 4.94507e-47 4.68721e-47 4.39757e-47 4.08145e-47 3.74528e-47 3.39633e-47 3.04227e-47 2.69074e-47 2.34895e-47 2.02333e-47 1.7192e-47 1.44059e-47 1.19018e-47 9.69311e-48 7.78071e-48 6.1549e-48 4.79752e-48 3.6844e-48 2.78764e-48 2.0778e-48 1.52563e-48 1.10347e-48 7.86205e-49 5.5179e-49 3.81488e-49 2.59817e-49 1.7432e-49 1.15224e-49 7.50361e-50 4.81458e-50 3.04393e-50 1.89641e-50 1.16434e-50 7.04554e-51 4.20217e-51 2.47057e-51 1.43193e-51 8.18262e-52 4.61052e-52 2.56176e-52 1.40379e-52 7.58722e-53 4.04511e-53 2.1276e-53 1.10409e-53 5.65359e-54 2.8569e-54 1.42483e-54 7.01414e-55 3.40861e-55 1.63538e-55 7.74712e-56 3.62394e-56 1.67391e-56 7.63058e-57 3.42114e-57 1.47989e-57 5.48621e-58 0 
0 2.50839e-78 9.65834e-78 3.44506e-77 1.21239e-76 4.22872e-76 1.46225e-75 5.0126e-75 1.70337e-74 5.7376e-74 1.91558e-73 6.33853e-73 2.07859e-72 6.75478e-72 2.17513e-71 6.94006e-71 2.19388e-70 6.87074e-70 2.1316e-69 6.55067e-69 1.99394e-68 6.01111e-68 1.79464e-67 5.3058e-67 1.55324e-66 4.502e-66 1.29187e-65 3.6698e-65 1.03191e-64 2.87198e-64 7.91084e-64 2.1564e-63 5.81653e-63 1.55235e-62 4.09888e-62 1.07066e-61 2.7664e-61 7.06982e-61 1.78688e-60 4.46613e-60 1.10377e-59 2.69706e-59 6.51523e-59 1.55578e-58 3.67204e-58 8.56562e-58 1.97451e-57 4.49743e-57 1.01211e-56 2.25011e-56 4.94136e-56 1.07179e-55 2.29585e-55 4.85628e-55 1.01424e-54 2.09126e-54 4.25654e-54 8.5514e-54 1.69552e-53 3.31744e-53 6.4046e-53 1.21989e-52 2.29212e-52 4.24813e-52 7.76521e-52 1.39977e-51 2.48808e-51 4.36039e-51 7.53355e-51 1.28304e-50 2.15382e-50 3.56339e-50 5.80984e-50 9.33416e-50 1.47762e-49 2.30458e-49 3.5411e-49 5.36012e-49 7.99244e-49 1.17391e-48 1.69837e-48 2.42027e-48 3.39723e-48 4.69705e-48 6.39698e-48 8.58218e-48 1.13429e-47 1.47703e-47 1.89517e-47 2.39641e-47 2.98678e-47 3.66997e-47 4.44674e-47 5.31446e-47 6.26682e-47 7.29386e-47 8.38219e-47 9.51551e-47 1.06754e-46 1.18421e-46 1.29957e-46 1.4117e-46 1.51886e-46 1.61953e-46 1.71248e-46 1.7968e-46 1.8719e-46 1.93747e-46 1.9935e-46 2.04018e-46 2.07789e-46 2.10713e-46 2.12851e-46 2.14268e-46 2.15035e-46 2.15221e-46 2.14896e-46 2.14127e-46 2.12979e-46 2.11517e-46 2.09799e-46 2.07883e-46 2.05822e-46 2.03669e-46 2.01474e-46 1.99285e-46 1.97147e-46 1.95105e-46 1.93201e-46 1.91476e-46 1.89965e-46 1.887e-46 1.87709e-46 1.87009e-46 1.86613e-46 1.86519e-46 1.86717e-46 1.87183e-46 1.87878e-46 1.88752e-46 1.89743e-46 1.90782e-46 1.91791e-46 1.92695e-46 1.93422e-46 1.93913e-46 1.94121e-46 1.94019e-46 1.93603e-46 1.9289e-46 1.91915e-46 1.90734e-46 1.89411e-46 1.88016e-46 1.86619e-46 1.85282e-46 1.84055e-46 1.82973e-46 1.82054e-46 1.81297e-46 1.8069e-46 1.80206e-46 1.79813e-46 1.79477e-46 1.79166e-46 1.78853e-46 1.78522e-46 1.78168e-46 1.77798e-46 1.77431e-46 1.77095e-46 1.76828e-46 1.76669e-46 1.76664e-46 1.76853e-46 1.77273e-46 1.77955e-46 1.78919e-46 1.80176e-46 1.81725e-46 1.83551e-46 1.85628e-46 1.87914e-46 1.90353e-46 1.92873e-46 1.95386e-46 1.97785e-46 1.99946e-46 2.01728e-46 2.02977e-46 2.03531e-46 2.03225e-46 2.01901e-46 1.99417e-46 1.9566e-46 1.90553e-46 1.84066e-46 1.76222e-46 1.67102e-46 1.56841e-46 1.45626e-46 1.33685e-46 1.21276e-46 1.08673e-46 9.61495e-47 8.39634e-47 7.23454e-47 6.14872e-47 5.15349e-47 4.25857e-47 3.46888e-47 2.78488e-47 2.2032e-47 1.71744e-47 1.31901e-47 9.97976e-48 7.43832e-48 5.46128e-48 3.94973e-48 2.81379e-48 1.97453e-48 1.36488e-48 9.29381e-49 6.23413e-49 4.11964e-49 2.68206e-49 1.7204e-49 1.08735e-49 6.77202e-50 4.15636e-50 2.51414e-50 1.49893e-50 8.80912e-51 5.10365e-51 2.91521e-51 1.64188e-51 9.11882e-52 4.99468e-52 2.69832e-52 1.43795e-52 7.55964e-53 3.92116e-53 2.00692e-53 1.01367e-53 5.05312e-54 2.48637e-54 1.20771e-54 5.79161e-55 2.74232e-55 1.2822e-55 5.91977e-56 2.6973e-56 1.20879e-56 5.22673e-57 1.93703e-57 0 
0 8.65372e-78 3.33262e-77 1.18896e-76 4.18509e-76 1.46004e-75 5.0498e-75 1.73147e-74 5.88523e-74 1.98285e-73 6.62166e-73 2.19163e-72 7.18887e-72 2.33679e-71 7.52686e-71 2.40222e-70 7.59605e-70 2.37962e-69 7.38483e-69 2.27016e-68 6.91228e-68 2.08451e-67 6.22547e-67 1.84116e-66 5.39175e-66 1.56333e-65 4.48769e-65 1.27529e-64 3.58733e-64 9.98797e-64 2.75226e-63 7.50534e-63 2.02527e-62 5.4074e-62 1.4284e-61 3.73271e-61 9.64886e-61 2.46697e-60 6.23803e-60 1.55986e-59 3.85686e-59 9.42875e-59 2.27878e-58 5.44419e-58 1.2856e-57 3.00037e-57 6.91983e-57 1.57697e-56 3.55067e-56 7.89793e-56 1.73534e-55 3.76597e-55 8.0713e-55 1.70819e-54 3.5695e-54 7.36391e-54 1.49966e-53 3.01444e-53 5.98008e-53 1.17069e-52 2.26133e-52 4.30946e-52 8.10159e-52 1.50231e-51 2.74751e-51 4.95524e-51 8.81228e-51 1.54513e-50 2.67083e-50 4.55084e-50 7.64286e-50 1.26503e-49 2.06339e-49 3.31639e-49 5.2519e-49 8.1941e-49 1.25948e-48 1.90704e-48 2.84436e-48 4.17877e-48 6.04698e-48 8.61879e-48 1.20996e-47 1.67308e-47 2.27874e-47 3.05723e-47 4.0406e-47 5.2612e-47 6.74989e-47 8.53381e-47 1.0634e-46 1.30632e-46 1.58234e-46 1.89046e-46 2.22837e-46 2.59245e-46 2.97786e-46 3.37876e-46 3.78853e-46 4.20017e-46 4.60659e-46 5.00102e-46 5.3773e-46 5.73015e-46 6.0553e-46 6.34967e-46 6.61126e-46 6.83915e-46 7.03338e-46 7.19474e-46 7.32464e-46 7.42497e-46 7.4979e-46 7.54578e-46 7.57107e-46 7.57623e-46 7.5637e-46 7.53583e-46 7.49491e-46 7.4431e-46 7.38248e-46 7.31502e-46 7.2426e-46 7.16702e-46 7.09002e-46 7.01325e-46 6.93832e-46 6.86678e-46 6.8001e-46 6.73967e-46 6.68676e-46 6.64249e-46 6.60779e-46 6.58334e-46 6.5695e-46 6.56629e-46 6.57332e-46 6.58972e-46 6.61418e-46 6.64494e-46 6.67983e-46 6.71636e-46 6.75187e-46 6.7837e-46 6.80933e-46 6.82664e-46 6.83402e-46 6.83054e-46 6.81602e-46 6.79106e-46 6.75694e-46 6.71555e-46 6.6692e-46 6.62034e-46 6.57142e-46 6.52462e-46 6.48171e-46 6.44389e-46 6.41178e-46 6.38538e-46 6.36421e-46 6.34737e-46 6.3337e-46 6.32201e-46 6.31113e-46 6.30018e-46 6.28857e-46 6.27612e-46 6.26309e-46 6.25013e-46 6.23826e-46 6.22878e-46 6.22314e-46 6.22286e-46 6.22943e-46 6.24413e-46 6.26805e-46 6.30191e-46 6.34609e-46 6.40056e-46 6.46483e-46 6.53799e-46 6.6186e-46 6.70472e-46 6.79387e-46 6.88294e-46 6.96822e-46 7.04537e-46 7.10945e-46 7.15506e-46 7.17644e-46 7.16776e-46 7.12339e-46 7.03829e-46 6.90833e-46 6.73074e-46 6.50433e-46 6.22985e-46 5.91002e-46 5.54954e-46 5.15493e-46 4.73422e-46 4.29652e-46 3.8515e-46 3.40888e-46 2.97784e-46 2.56659e-46 2.18198e-46 1.82926e-46 1.51192e-46 1.23178e-46 9.89038e-47 7.82543e-47 6.10054e-47 4.68546e-47 3.54509e-47 2.64223e-47 1.93983e-47 1.4028e-47 9.99229e-48 7.01086e-48 4.84532e-48 3.2986e-48 2.21212e-48 1.46143e-48 9.51181e-49 6.09944e-49 3.85378e-49 2.39931e-49 1.47205e-49 8.90087e-50 5.30461e-50 3.1162e-50 1.80464e-50 1.03036e-50 5.80054e-51 3.2201e-51 1.76295e-51 9.51967e-52 5.07067e-52 2.6645e-52 1.3814e-52 7.06686e-53 3.56764e-53 1.77759e-53 8.74232e-54 4.24436e-54 2.0344e-54 9.62815e-55 4.49956e-55 2.0764e-55 9.4565e-56 4.23593e-56 1.83082e-56 6.78286e-57 0 
0 2.95954e-77 1.13995e-76 4.06776e-76 1.43214e-75 4.9974e-75 1.72883e-74 5.9292e-74 2.01581e-73 6.79334e-73 2.26919e-72 7.51251e-72 2.46488e-71 8.01445e-71 2.5822e-70 8.24358e-70 2.60747e-69 8.17093e-69 2.53653e-68 7.79998e-68 2.37575e-67 7.16685e-67 2.14114e-66 6.33456e-66 1.85571e-65 5.38256e-65 1.54569e-64 4.39413e-64 1.23653e-63 3.44416e-63 9.49448e-63 2.59019e-62 6.9924e-62 1.86775e-61 4.93591e-61 1.29044e-60 3.33722e-60 8.53634e-60 2.15952e-59 5.40258e-59 1.33647e-58 3.26883e-58 7.90416e-58 1.88932e-57 4.46375e-57 1.0423e-56 2.40514e-56 5.48399e-56 1.23542e-55 2.74949e-55 6.04449e-55 1.31247e-54 2.81446e-54 5.95975e-54 1.24606e-53 2.57208e-53 5.24094e-53 1.05407e-52 2.09224e-52 4.09815e-52 7.92046e-52 1.51025e-51 2.84076e-51 5.27058e-51 9.64433e-51 1.74031e-50 3.09654e-50 5.43217e-50 9.39445e-50 1.6015e-49 2.69088e-49 4.4559e-49 7.27121e-49 1.16915e-48 1.85222e-48 2.89093e-48 4.44506e-48 6.73262e-48 1.00446e-47 1.47608e-47 2.13647e-47 3.04569e-47 4.27637e-47 5.91384e-47 8.05525e-47 1.08075e-46 1.42835e-46 1.85971e-46 2.38567e-46 3.01569e-46 3.75709e-46 4.61414e-46 5.58737e-46 6.67299e-46 7.86257e-46 9.14306e-46 1.04972e-45 1.1904e-45 1.33401e-45 1.47807e-45 1.62009e-45 1.75768e-45 1.8887e-45 2.01132e-45 2.12409e-45 2.22595e-45 2.31626e-45 2.39474e-45 2.46144e-45 2.51668e-45 2.561e-45 2.59507e-45 2.61967e-45 2.63564e-45 2.64385e-45 2.64514e-45 2.64037e-45 2.63035e-45 2.61586e-45 2.59765e-45 2.57643e-45 2.55287e-45 2.52763e-45 2.50131e-45 2.47452e-45 2.44782e-45 2.42178e-45 2.39692e-45 2.37375e-45 2.35276e-45 2.33439e-45 2.31902e-45 2.30698e-45 2.2985e-45 2.29371e-45 2.29262e-45 2.29509e-45 2.30083e-45 2.30937e-45 2.32011e-45 2.33228e-45 2.34503e-45 2.35742e-45 2.36854e-45 2.3775e-45 2.38356e-45 2.38616e-45 2.38498e-45 2.37995e-45 2.37128e-45 2.35944e-45 2.34506e-45 2.32895e-45 2.31198e-45 2.29499e-45 2.27874e-45 2.26386e-45 2.25075e-45 2.23963e-45 2.23049e-45 2.22318e-45 2.21736e-45 2.21265e-45 2.20861e-45 2.20485e-45 2.20105e-45 2.19701e-45 2.19266e-45 2.18811e-45 2.18357e-45 2.17941e-45 2.17608e-45 2.17409e-45 2.17396e-45 2.17623e-45 2.18133e-45 2.18965e-45 2.20144e-45 2.21684e-45 2.23584e-45 2.25828e-45 2.28385e-45 2.31205e-45 2.34222e-45 2.37351e-45 2.40484e-45 2.43493e-45 2.46227e-45 2.48514e-45 2.50167e-45 2.50983e-45 2.50757e-45 2.49292e-45 2.46407e-45 2.41955e-45 2.35836e-45 2.28004e-45 2.18482e-45 2.0736e-45 1.94801e-45 1.81031e-45 1.6633e-45 1.51016e-45 1.35429e-45 1.1991e-45 1.04785e-45 9.0343e-46 7.68273e-46 6.44245e-46 5.32603e-46 4.33999e-46 3.48525e-46 2.7579e-46 2.15017e-46 1.65148e-46 1.24955e-46 9.31285e-47 6.83672e-47 4.94354e-47 3.52088e-47 2.46995e-47 1.70669e-47 1.16163e-47 7.78823e-48 5.14388e-48 3.34693e-48 2.14553e-48 1.35514e-48 8.43387e-49 5.17248e-49 3.12634e-49 1.86243e-49 1.09362e-49 6.33055e-50 3.61282e-50 2.03294e-50 1.12803e-50 6.17282e-51 3.33163e-51 1.77373e-51 9.31587e-52 4.82738e-52 2.46831e-52 1.24548e-52 6.20252e-53 3.04891e-53 1.47949e-53 7.08787e-54 3.35278e-54 1.56608e-54 7.22339e-55 3.28812e-55 1.47217e-55 6.36014e-56 2.35553e-56 0 
0 1.0033e-76 3.86519e-76 1.37954e-75 4.85806e-75 1.69559e-74 5.86719e-74 2.0127e-73 6.84447e-73 2.3072e-72 7.7088e-72 2.5528e-71 8.37813e-71 2.72489e-70 8.78196e-70 2.80444e-69 8.87323e-69 2.78144e-68 8.63727e-68 2.65688e-67 8.09515e-67 2.44288e-66 7.3008e-66 2.16072e-65 6.33214e-65 1.83736e-64 5.27828e-64 1.50111e-63 4.2259e-63 1.17754e-62 3.24745e-62 8.86313e-62 2.3937e-61 6.39665e-61 1.69121e-60 4.42349e-60 1.1445e-59 2.92892e-59 7.41315e-59 1.85549e-58 4.59233e-58 1.12379e-57 2.71875e-57 6.50197e-57 1.53698e-56 3.5908e-56 8.29033e-56 1.89132e-55 4.26308e-55 9.49294e-55 2.0881e-54 4.53655e-54 9.73369e-54 2.06233e-53 4.3144e-53 8.91075e-53 1.81673e-52 3.65595e-52 7.26095e-52 1.42305e-51 2.7519e-51 5.25024e-51 9.88123e-51 1.83434e-50 3.35841e-50 6.06355e-50 1.07947e-49 1.89468e-49 3.27837e-49 5.59154e-49 9.39965e-49 1.55724e-48 2.54228e-48 4.08955e-48 6.48149e-48 1.01202e-47 1.55662e-47 2.35848e-47 3.51976e-47 5.17375e-47 7.4902e-47 1.06799e-46 1.49978e-46 2.0743e-46 2.82562e-46 3.79116e-46 5.01043e-46 6.52317e-46 8.36707e-46 1.0575e-45 1.3172e-45 1.61724e-45 1.95773e-45 2.33725e-45 2.75274e-45 3.19955e-45 3.67152e-45 4.16127e-45 4.66053e-45 5.16059e-45 5.65274e-45 6.12871e-45 6.58108e-45 7.00357e-45 7.39125e-45 7.74061e-45 8.04956e-45 8.3173e-45 8.54419e-45 8.73147e-45 8.88111e-45 8.99558e-45 9.07764e-45 9.13024e-45 9.15636e-45 9.15899e-45 9.14103e-45 9.10525e-45 9.05433e-45 8.99082e-45 8.91712e-45 8.83553e-45 8.74824e-45 8.65737e-45 8.56492e-45 8.47287e-45 8.38309e-45 8.29743e-45 8.21761e-45 8.14531e-45 8.08203e-45 8.02912e-45 7.98768e-45 7.95852e-45 7.9421e-45 7.93844e-45 7.94706e-45 7.96695e-45 7.99654e-45 8.0337e-45 8.07583e-45 8.11995e-45 8.16286e-45 8.20135e-45 8.2324e-45 8.25344e-45 8.26253e-45 8.25856e-45 8.24131e-45 8.21149e-45 8.17068e-45 8.12115e-45 8.06565e-45 8.00718e-45 7.94867e-45 7.89275e-45 7.84153e-45 7.79647e-45 7.75827e-45 7.72695e-45 7.70189e-45 7.68199e-45 7.66586e-45 7.65203e-45 7.63912e-45 7.62604e-45 7.61208e-45 7.59706e-45 7.58127e-45 7.56553e-45 7.55107e-45 7.53946e-45 7.53247e-45 7.53195e-45 7.53968e-45 7.55724e-45 7.58594e-45 7.62667e-45 7.67992e-45 7.74567e-45 7.82339e-45 7.91201e-45 8.00989e-45 8.11476e-45 8.22368e-45 8.33303e-45 8.43837e-45 8.53454e-45 8.61562e-45 8.67506e-45 8.70588e-45 8.70092e-45 8.65324e-45 8.55652e-45 8.40554e-45 8.19665e-45 7.92816e-45 7.60068e-45 7.21725e-45 6.78339e-45 6.30687e-45 5.79737e-45 5.26593e-45 4.72441e-45 4.18471e-45 3.65821e-45 3.15508e-45 2.68388e-45 2.25121e-45 1.86153e-45 1.51719e-45 1.21858e-45 9.64382e-46 7.51931e-46 5.77562e-46 4.36998e-46 3.25684e-46 2.39074e-46 1.72854e-46 1.23093e-46 8.63369e-47 5.96456e-47 4.05874e-47 2.72052e-47 1.79631e-47 1.16843e-47 7.48767e-48 4.72762e-48 2.94119e-48 1.80312e-48 1.08939e-48 6.48696e-49 3.80748e-49 2.203e-49 1.25666e-49 7.06788e-50 3.9199e-50 2.14399e-50 1.15659e-50 6.15446e-51 3.23075e-51 1.67328e-51 8.55129e-52 4.31263e-52 2.14659e-52 1.05462e-52 5.11491e-53 2.44916e-53 1.15793e-53 5.4059e-54 2.49214e-54 1.13386e-54 5.07408e-55 2.19114e-55 8.11228e-56 0 
0 3.37131e-76 1.29903e-75 4.63743e-75 1.63345e-74 5.70248e-74 1.97369e-73 6.77229e-73 2.3036e-72 7.76723e-72 2.59588e-71 8.59875e-71 2.82286e-70 9.18366e-70 2.96066e-69 9.45748e-69 2.99328e-68 9.38586e-68 2.91557e-67 8.97152e-67 2.73444e-66 8.25464e-66 2.46788e-65 7.30653e-65 2.14204e-64 6.21781e-64 1.78693e-63 5.08397e-63 1.43181e-62 3.99139e-62 1.10123e-61 3.00685e-61 8.12434e-61 2.17204e-60 5.74531e-60 1.50343e-59 3.89173e-59 9.9643e-59 2.52323e-58 6.31875e-58 1.56469e-57 3.83093e-57 9.27296e-57 2.21884e-56 5.24787e-56 1.22672e-55 2.83378e-55 6.4685e-55 1.45884e-54 3.25038e-54 7.15377e-54 1.55512e-53 3.33864e-53 7.07794e-53 1.48158e-52 3.06181e-52 6.24616e-52 1.25771e-51 2.49939e-51 4.90141e-51 9.48398e-51 1.81048e-50 3.40942e-50 6.33288e-50 1.16013e-49 2.09578e-49 3.73311e-49 6.55593e-49 1.13498e-48 1.93682e-48 3.25753e-48 5.39939e-48 8.81894e-48 1.41926e-47 2.25034e-47 3.51507e-47 5.40869e-47 8.19769e-47 1.22379e-46 1.79937e-46 2.60565e-46 3.71604e-46 5.21928e-46 7.21954e-46 9.83527e-46 1.31965e-45 1.74403e-45 2.27045e-45 2.91189e-45 3.67966e-45 4.58229e-45 5.62452e-45 6.80644e-45 8.12279e-45 9.56262e-45 1.11093e-44 1.27413e-44 1.44324e-44 1.6154e-44 1.78756e-44 1.9567e-44 2.11997e-44 2.27482e-44 2.41913e-44 2.55123e-44 2.66998e-44 2.7747e-44 2.86518e-44 2.94161e-44 3.00447e-44 3.05448e-44 3.09251e-44 3.11956e-44 3.13663e-44 3.14478e-44 3.14501e-44 3.13832e-44 3.12564e-44 3.10789e-44 3.08591e-44 3.06052e-44 3.03249e-44 3.00256e-44 2.97144e-44 2.9398e-44 2.90832e-44 2.87764e-44 2.84836e-44 2.8211e-44 2.7964e-44 2.77479e-44 2.75672e-44 2.74258e-44 2.73264e-44 2.72706e-44 2.72584e-44 2.72882e-44 2.73566e-44 2.74583e-44 2.75858e-44 2.77304e-44 2.78819e-44 2.80292e-44 2.81614e-44 2.82681e-44 2.83406e-44 2.83721e-44 2.83589e-44 2.83002e-44 2.81985e-44 2.80591e-44 2.78898e-44 2.77002e-44 2.75005e-44 2.73007e-44 2.71098e-44 2.69351e-44 2.67814e-44 2.66514e-44 2.65449e-44 2.64597e-44 2.63922e-44 2.63375e-44 2.62906e-44 2.62466e-44 2.6202e-44 2.61542e-44 2.61027e-44 2.60484e-44 2.59942e-44 2.59444e-44 2.59042e-44 2.588e-44 2.58778e-44 2.5904e-44 2.5964e-44 2.60621e-44 2.62017e-44 2.63843e-44 2.661e-44 2.68769e-44 2.71817e-44 2.75186e-44 2.78802e-44 2.82565e-44 2.86351e-44 2.90011e-44 2.93369e-44 2.96221e-44 2.98343e-44 2.99495e-44 2.99429e-44 2.97904e-44 2.94698e-44 2.89629e-44 2.82566e-44 2.73444e-44 2.62281e-44 2.49177e-44 2.34316e-44 2.17964e-44 2.00452e-44 1.82162e-44 1.63501e-44 1.44884e-44 1.26704e-44 1.09316e-44 9.30199e-45 7.8046e-45 6.45519e-45 5.2622e-45 4.22719e-45 3.34582e-45 2.60897e-45 2.00405e-45 1.51632e-45 1.13004e-45 8.29468e-46 5.99653e-46 4.26966e-46 2.9942e-46 2.06811e-46 1.40696e-46 9.42818e-47 6.22343e-47 4.04681e-47 2.59243e-47 1.63623e-47 1.01755e-47 6.23563e-48 3.76579e-48 2.24141e-48 1.31498e-48 7.60488e-49 4.33596e-49 2.43749e-49 1.35117e-49 7.38646e-50 3.98261e-50 2.11812e-50 1.11131e-50 5.75266e-51 2.93833e-51 1.48108e-51 7.368e-52 3.61797e-52 1.75377e-52 8.39303e-53 3.96598e-53 1.85057e-53 8.52669e-54 3.8774e-54 1.73428e-54 7.48566e-55 2.77045e-55 0 