# vtk DataFile Version 3.0
Gray-Scott Simulation Output
ASCII
DATASET STRUCTURED_POINTS
DIMENSIONS 256 256 1
SPACING 1.0 1.0 1.0
ORIGIN 0 0 0
POINT_DATA 65536
SCALARS u double
LOOKUP_TABLE default
0 0 0 0 0 0 0 0 0 0 0 0 0 0 0 0 0 0 0 0 0 0 0 0 0 0 0 0 0 0 0 0 0 0 0 0 0 0 0 0 0 0 0 0 0 0 0 0 0 0 0 0 0 0 0 0 0 0 0 0 0 0 0 0 0 0 0 0 0 0 0 0 0 0 0 0 0 0 0 0 0 0 0 0 0 0 0 0 0 0 0 0 0 0 0 0 0 0 0 0 0 0 0 0 0 0 0 0 0 0 0 0 0 0 0 0 0 0 0 0 0 0 0 0 0 0 0 0 0 0 0 0 0 0 0 0 0 0 0 0 0 0 0 0 0 0 0 0 0 0 0 0 0 0 0 0 0 0 0 0 0 0 0 0 0 0 0 0 0 0 0 0 0 0 0 0 0 0 0 0 0 0 0 0 0 0 0 0 0 0 0 0 0 0 0 0 0 0 0 0 0 0 0 0 0 0 0 0 0 0 0 0 0 0 0 0 0 0 0 0 0 0 0 0 0 0 0 0 0 0 0 0 0 0 0 0 0 0 0 0 0 0 0 0 0 0 0 0 0 0 0 0 0 0 0 0 
0 1.60027e-138 1.71295e-137 1.79933e-136 1.87029e-135 1.92365e-134 1.95759e-133 1.97083e-132 1.96274e-131 1.93339e-130 1.88351e-129 1.81453e-128 1.72844e-127 1.62776e-126 1.51539e-125 1.39443e-124 1.26812e-123 1.13961e-122 1.01188e-121 8.87618e-121 7.69102e-120 6.5818e-119 5.56221e-118 4.64118e-117 3.82318e-116 3.10864e-115 2.49459e-114 1.97534e-113 1.54322e-112 1.18928e-111 9.03937e-111 6.77508e-110 5.0065e-109 3.64686e-108 2.6181e-107 1.85204e-106 1.29071e-105 8.85996e-105 5.98918e-104 3.98605e-103 2.61133e-102 1.68355e-101 1.06791e-100 6.66321e-100 4.08849e-99 2.46641e-98 1.46243e-97 8.52067e-97 4.87689e-96 2.7413e-95 1.51282e-94 8.19412e-94 4.35476e-93 2.27003e-92 1.16027e-91 5.81298e-91 2.85359e-90 1.37208e-89 6.45941e-89 2.97621e-88 1.34157e-87 5.91366e-87 2.54803e-86 1.07266e-85 4.40981e-85 1.76959e-84 6.92788e-84 2.6447e-83 9.83935e-83 3.56557e-82 1.2578e-81 4.31675e-81 1.44044e-80 4.67036e-80 1.4704e-79 4.49213e-79 1.33076e-78 3.82001e-78 1.06175e-77 2.85529e-77 7.42346e-77 1.86446e-76 4.52004e-76 1.05689e-75 2.38158e-75 5.16786e-75 1.07902e-74 2.16623e-74 4.17862e-74 7.74011e-74 1.37599e-73 2.34673e-73 3.83861e-73 6.0218e-73 9.06154e-73 1.30863e-72 1.8153e-72 2.42194e-72 3.11346e-72 3.86549e-72 4.64831e-72 5.43208e-72 6.19166e-72 6.90944e-72 7.57537e-72 8.18481e-72 8.73539e-72 9.22453e-72 9.64843e-72 1.00026e-71 1.02831e-71 1.04873e-71 1.06148e-71 1.06673e-71 1.06491e-71 1.0568e-71 1.04356e-71 1.02668e-71 1.00787e-71 9.88674e-72 9.70164e-72 9.52646e-72 9.3565e-72 9.18194e-72 8.99265e-72 8.78338e-72 8.55722e-72 8.3256e-72 8.10501e-72 7.9114e-72 7.75482e-72 7.63642e-72 7.54908e-72 7.48148e-72 7.42396e-72 7.37385e-72 7.33811e-72 7.33222e-72 7.37559e-72 7.48523e-72 7.66953e-72 7.9244e-72 8.23224e-72 8.56401e-72 8.88328e-72 9.15142e-72 9.333e-72 9.4009e-72 9.34055e-72 9.15302e-72 8.856e-72 8.48233e-72 8.07564e-72 7.68355e-72 7.3495e-72 7.10506e-72 6.96461e-72 6.92389e-72 6.96304e-72 7.05298e-72 7.16337e-72 7.26933e-72 7.35516e-72 7.41437e-72 7.44688e-72 7.45523e-72 7.44154e-72 7.4063e-72 7.34894e-72 7.26944e-72 7.17005e-72 7.05679e-72 6.94004e-72 6.83428e-72 6.75652e-72 6.72343e-72 6.74752e-72 6.83346e-72 6.97591e-72 7.16016e-72 7.36593e-72 7.57343e-72 7.76965e-72 7.9525e-72 8.13118e-72 8.32248e-72 8.54434e-72 8.80911e-72 9.11835e-72 9.46046e-72 9.811e-72 1.01349e-71 1.03902e-71 1.05321e-71 1.05184e-71 1.03153e-71 9.90288e-72 9.27978e-72 8.46565e-72 7.50015e-72 6.43872e-72 5.34534e-72 4.28368e-72 3.30864e-72 2.45982e-72 1.75838e-72 1.20762e-72 7.96361e-73 5.04085e-73 3.06235e-73 1.78563e-73 9.99548e-74 5.37338e-74 2.77539e-74 1.37808e-74 6.58217e-75 3.02623e-75 1.34024e-75 5.72185e-76 2.35662e-76 9.37075e-77 3.60017e-77 1.33742e-77 4.80765e-78 1.67356e-78 5.64552e-79 1.84685e-79 5.86304e-80 1.80746e-80 5.41442e-81 1.57706e-81 4.4691e-82 1.2329e-82 3.31298e-83 8.67632e-84 2.21569e-84 5.52033e-85 1.34252e-85 3.18849e-86 7.39882e-87 1.67822e-87 3.72249e-88 8.07791e-89 1.71563e-89 3.56762e-90 7.26656e-91 1.45023e-91 2.83696e-92 5.44169e-93 1.02381e-93 1.88997e-94 3.42432e-95 6.09117e-96 1.06329e-96 1.77513e-97 0 
0 1.71188e-137 1.83171e-136 1.92333e-135 1.9984e-134 2.05462e-133 2.09006e-132 2.10339e-131 2.09396e-130 2.06186e-129 2.0079e-128 1.93362e-127 1.84119e-126 1.73329e-125 1.61302e-124 1.48372e-123 1.34882e-122 1.21168e-121 1.07548e-120 9.43055e-120 8.16838e-119 6.98776e-118 5.90312e-117 4.92386e-116 4.05458e-115 3.29561e-114 2.64368e-113 2.09265e-112 1.63429e-111 1.25902e-110 9.56611e-110 7.16738e-109 5.29456e-108 3.85536e-107 2.76684e-106 1.9566e-105 1.36312e-104 9.35385e-104 6.32094e-103 4.20546e-102 2.75417e-101 1.77507e-100 1.1256e-99 7.02089e-99 4.3066e-98 2.59717e-97 1.53948e-96 8.96684e-96 5.13069e-95 2.8831e-94 1.5906e-93 8.61283e-93 4.57595e-92 2.38464e-91 1.21851e-90 6.10302e-90 2.99514e-89 1.43974e-88 6.77615e-88 3.12132e-87 1.40661e-86 6.19879e-86 2.67021e-85 1.12381e-84 4.61901e-84 1.8531e-83 7.25312e-83 2.76823e-82 1.02967e-81 3.73048e-81 1.3157e-80 4.51453e-80 1.50614e-79 4.88242e-79 1.53687e-78 4.69438e-78 1.39043e-77 3.99064e-77 1.109e-76 2.98189e-76 7.75149e-76 1.94658e-75 4.7185e-75 1.10316e-74 2.48556e-74 5.39289e-74 1.12589e-73 2.26012e-73 4.35937e-73 8.0743e-73 1.43531e-72 2.44774e-72 4.00363e-72 6.2804e-72 9.45034e-72 1.36474e-71 1.89309e-71 2.52567e-71 3.24675e-71 4.03091e-71 4.84714e-71 5.66429e-71 6.45612e-71 7.20423e-71 7.89813e-71 8.53297e-71 9.10631e-71 9.61549e-71 1.00566e-70 1.04251e-70 1.07169e-70 1.09292e-70 1.10617e-70 1.11162e-70 1.10973e-70 1.10129e-70 1.08751e-70 1.06996e-70 1.0504e-70 1.03044e-70 1.01119e-70 9.92964e-71 9.75282e-71 9.57117e-71 9.37414e-71 9.15632e-71 8.9209e-71 8.67981e-71 8.45019e-71 8.24865e-71 8.08567e-71 7.96243e-71 7.87156e-71 7.80129e-71 7.74156e-71 7.6896e-71 7.65264e-71 7.64676e-71 7.69216e-71 7.80646e-71 7.99841e-71 8.26371e-71 8.58407e-71 8.92925e-71 9.26137e-71 9.54023e-71 9.729e-71 9.79943e-71 9.73642e-71 9.54105e-71 9.23175e-71 8.84272e-71 8.41934e-71 8.01117e-71 7.66342e-71 7.40897e-71 7.26277e-71 7.22041e-71 7.2612e-71 7.35491e-71 7.46995e-71 7.58039e-71 7.6699e-71 7.7317e-71 7.76571e-71 7.77456e-71 7.76045e-71 7.7239e-71 7.6643e-71 7.58159e-71 7.47811e-71 7.36009e-71 7.23835e-71 7.12795e-71 7.04663e-71 7.01175e-71 7.03639e-71 7.12541e-71 7.27331e-71 7.46479e-71 7.67876e-71 7.89463e-71 8.09883e-71 8.2892e-71 8.47529e-71 8.67453e-71 8.90559e-71 9.18128e-71 9.50321e-71 9.85931e-71 1.02241e-70 1.05612e-70 1.08267e-70 1.09742e-70 1.09597e-70 1.07479e-70 1.03181e-70 9.66901e-71 8.82092e-71 7.81514e-71 6.7094e-71 5.5703e-71 4.46419e-71 3.44826e-71 2.56377e-71 1.83281e-71 1.25883e-71 8.30191e-72 5.25541e-72 3.19298e-72 1.86196e-72 1.04238e-72 5.60424e-73 2.89496e-73 1.43762e-73 6.8674e-74 3.15778e-74 1.3987e-74 5.97228e-75 2.46013e-75 9.78391e-76 3.75953e-76 1.39686e-76 5.0222e-77 1.74856e-77 5.89966e-78 1.93037e-78 6.12941e-79 1.88997e-79 5.66278e-80 1.64976e-80 4.67616e-81 1.29032e-81 3.46808e-82 9.08466e-83 2.32053e-83 5.78297e-84 1.40675e-84 3.34189e-85 7.75681e-86 1.75989e-86 3.90469e-87 8.47561e-88 1.8006e-88 3.74535e-89 7.63075e-90 1.52335e-90 2.98088e-91 5.71942e-92 1.07639e-92 1.98762e-93 3.60235e-94 6.40982e-95 1.11926e-95 1.86913e-96 0 
0 1.79702e-136 1.92207e-135 2.01741e-134 2.09533e-133 2.15344e-132 2.18973e-131 2.20283e-130 2.1921e-129 2.15766e-128 2.10038e-127 2.02191e-126 1.92451e-125 1.81104e-124 1.68473e-123 1.54909e-122 1.40771e-121 1.26411e-120 1.1216e-119 9.83128e-119 8.5123e-118 7.27928e-117 6.14713e-116 5.12551e-115 4.21908e-114 3.42807e-113 2.74895e-112 2.17519e-111 1.69814e-110 1.30775e-109 9.93281e-109 7.43951e-108 5.49366e-107 3.99895e-106 2.86889e-105 2.02807e-104 1.41243e-103 9.68895e-103 6.54518e-102 4.3532e-101 2.84998e-100 1.83621e-99 1.16399e-98 7.25803e-98 4.45064e-97 2.68318e-96 1.58996e-95 9.25802e-95 5.29567e-94 2.9749e-93 1.64075e-92 8.88175e-92 4.71743e-91 2.45766e-90 1.25546e-89 6.28631e-89 3.08423e-88 1.48216e-87 6.97391e-87 3.21156e-86 1.4469e-85 6.37469e-85 2.74529e-84 1.15513e-83 4.74656e-83 1.90382e-82 7.44991e-82 2.84269e-81 1.05713e-80 3.82915e-80 1.35022e-79 4.63203e-79 1.54503e-78 5.00754e-78 1.57597e-77 4.81293e-77 1.4253e-76 4.09004e-76 1.13645e-75 3.05523e-75 7.94099e-75 1.99389e-74 4.83257e-74 1.12969e-73 2.54505e-73 5.5214e-73 1.15261e-72 2.31354e-72 4.46205e-72 8.26389e-72 1.46891e-71 2.50491e-71 4.09694e-71 6.42651e-71 9.66986e-71 1.3964e-70 1.93696e-70 2.58416e-70 3.32189e-70 4.12412e-70 4.95912e-70 5.795e-70 6.60487e-70 7.36987e-70 8.07924e-70 8.72804e-70 9.31378e-70 9.8338e-70 1.02842e-69 1.06603e-69 1.0958e-69 1.11746e-69 1.13098e-69 1.13653e-69 1.13459e-69 1.12597e-69 1.11191e-69 1.094e-69 1.07404e-69 1.05368e-69 1.03404e-69 1.01545e-69 9.97397e-70 9.78852e-70 9.58734e-70 9.3649e-70 9.12449e-70 8.87828e-70 8.6438e-70 8.43799e-70 8.27155e-70 8.14572e-70 8.05297e-70 7.9813e-70 7.92046e-70 7.86761e-70 7.83012e-70 7.82439e-70 7.87099e-70 7.9879e-70 8.18403e-70 8.45497e-70 8.78203e-70 9.13436e-70 9.4733e-70 9.75782e-70 9.95032e-70 1.0022e-69 9.95744e-70 9.75776e-70 9.44178e-70 9.04441e-70 8.612e-70 8.19514e-70 7.84e-70 7.58013e-70 7.43083e-70 7.38759e-70 7.42931e-70 7.52511e-70 7.64271e-70 7.75566e-70 7.84724e-70 7.91052e-70 7.94543e-70 7.95463e-70 7.94038e-70 7.90319e-70 7.84243e-70 7.75801e-70 7.6523e-70 7.53165e-70 7.4071e-70 7.29404e-70 7.21059e-70 7.17452e-70 7.19921e-70 7.28968e-70 7.44031e-70 7.63553e-70 7.85381e-70 8.07412e-70 8.28262e-70 8.47707e-70 8.6672e-70 8.87079e-70 9.10686e-70 9.38849e-70 9.71729e-70 1.00809e-69 1.04534e-69 1.07975e-69 1.10684e-69 1.12188e-69 1.12036e-69 1.0987e-69 1.05477e-69 9.88423e-70 9.01746e-70 7.98952e-70 6.85938e-70 5.69508e-70 4.56443e-70 3.52588e-70 2.62164e-70 1.87431e-70 1.28742e-70 8.4911e-71 5.3756e-71 3.26628e-71 1.90488e-71 1.06651e-71 5.73458e-72 2.96261e-72 1.47138e-72 7.02956e-73 3.23277e-73 1.43211e-73 6.11581e-74 2.51963e-74 1.00221e-74 3.85169e-75 1.43134e-75 5.14709e-76 1.79237e-76 6.04861e-77 1.97949e-77 6.28663e-78 1.93885e-78 5.81046e-79 1.69315e-79 4.80022e-80 1.32485e-80 3.56174e-81 9.33222e-82 2.38435e-82 5.94348e-83 1.44616e-83 3.4364e-84 7.97827e-85 1.81061e-85 4.01832e-86 8.72467e-87 1.85402e-87 3.85758e-88 7.86165e-89 1.5699e-89 3.07287e-90 5.89769e-91 1.11027e-91 2.05082e-92 3.71802e-93 6.61771e-94 1.15592e-94 1.93093e-95 0 
0 1.86664e-135 1.99576e-134 2.09394e-133 2.17396e-132 2.23337e-131 2.27012e-130 2.28281e-129 2.27081e-128 2.23427e-127 2.17412e-126 2.09209e-125 1.99056e-124 1.87248e-123 1.74122e-122 1.60043e-121 1.45381e-120 1.30502e-119 1.15746e-118 1.01419e-117 8.77796e-117 7.50368e-116 6.33431e-115 5.27965e-114 4.34438e-113 3.5286e-112 2.82854e-111 2.23737e-110 1.74606e-109 1.34417e-108 1.02059e-107 7.64137e-107 5.64076e-106 4.1046e-105 2.94368e-104 2.08023e-103 1.44826e-102 9.93141e-102 6.70673e-101 4.45917e-100 2.9184e-99 1.87968e-98 1.19116e-97 7.42506e-97 4.55161e-96 2.74319e-95 1.62502e-94 9.45921e-94 5.40911e-93 3.0377e-92 1.67489e-91 9.06389e-91 4.81277e-90 2.50661e-89 1.2801e-88 6.40791e-88 3.14303e-87 1.51001e-86 7.10302e-86 3.27016e-85 1.47292e-84 6.48769e-84 2.79326e-83 1.17502e-82 4.82717e-82 1.9357e-81 7.57294e-81 2.889e-80 1.07412e-79 3.88986e-79 1.37134e-78 4.70357e-78 1.56859e-77 5.08296e-77 1.59941e-76 4.88369e-76 1.44602e-75 4.14882e-75 1.1526e-74 3.09821e-74 8.0516e-74 2.0214e-73 4.89865e-73 1.145e-72 2.57927e-72 5.59508e-72 1.16788e-71 2.34401e-71 4.52046e-71 8.3715e-71 1.48795e-70 2.53724e-70 4.14963e-70 6.50891e-70 9.79354e-70 1.41423e-69 1.96165e-69 2.61705e-69 3.36411e-69 4.17647e-69 5.02197e-69 5.86828e-69 6.68814e-69 7.46242e-69 8.18021e-69 8.83649e-69 9.42877e-69 9.95442e-69 1.04095e-68 1.07895e-68 1.10901e-68 1.13089e-68 1.14452e-68 1.15012e-68 1.14816e-68 1.13945e-68 1.12525e-68 1.10716e-68 1.08701e-68 1.06645e-68 1.04661e-68 1.02784e-68 1.0096e-68 9.90863e-69 9.70532e-69 9.48049e-69 9.2375e-69 8.98866e-69 8.75166e-69 8.54364e-69 8.37542e-69 8.24826e-69 8.15456e-69 8.08221e-69 8.02087e-69 7.96767e-69 7.93003e-69 7.92451e-69 7.97186e-69 8.09022e-69 8.28856e-69 8.56242e-69 8.8929e-69 9.24885e-69 9.5912e-69 9.87852e-69 1.00728e-68 1.0145e-68 1.00796e-68 9.87755e-69 9.55805e-69 9.15633e-69 8.71921e-69 8.29783e-69 7.93885e-69 7.67618e-69 7.52528e-69 7.4816e-69 7.52383e-69 7.62076e-69 7.73977e-69 7.8541e-69 7.94683e-69 8.01098e-69 8.04644e-69 8.05591e-69 8.04166e-69 8.00421e-69 7.9429e-69 7.85761e-69 7.75073e-69 7.62865e-69 7.50252e-69 7.38791e-69 7.30315e-69 7.26624e-69 7.29072e-69 7.3817e-69 7.53355e-69 7.73054e-69 7.95093e-69 8.17349e-69 8.38419e-69 8.58077e-69 8.77304e-69 8.97893e-69 9.21766e-69 9.5024e-69 9.83479e-69 1.02023e-68 1.05787e-68 1.09263e-68 1.12e-68 1.13517e-68 1.13361e-68 1.11167e-68 1.06722e-68 1.00011e-68 9.12425e-69 8.0844e-69 6.94111e-69 5.7632e-69 4.61927e-69 3.56844e-69 2.65344e-69 1.89717e-69 1.30321e-69 8.59587e-70 5.44235e-70 3.30711e-70 1.92887e-70 1.08004e-70 5.80789e-71 3.0008e-71 1.49052e-71 7.12183e-72 3.27561e-72 1.45128e-72 6.19853e-73 2.55409e-73 1.01607e-73 3.90556e-74 1.4516e-74 5.22083e-75 1.81837e-75 6.13748e-76 2.00895e-76 6.38145e-77 1.96849e-77 5.90051e-78 1.71975e-78 4.87672e-79 1.34627e-79 3.62014e-80 9.48746e-81 2.42459e-81 6.04527e-82 1.47129e-82 3.49701e-83 8.12109e-84 1.84351e-84 4.09242e-85 8.88797e-86 1.88925e-86 3.93196e-87 8.01551e-88 1.60108e-88 3.13482e-89 6.01836e-90 1.13333e-90 2.09403e-91 3.79753e-92 6.76131e-93 1.18137e-93 1.97403e-94 0 
0 1.9186e-134 2.05052e-133 2.15054e-132 2.23185e-131 2.29195e-130 2.32875e-129 2.34087e-128 2.32767e-127 2.28932e-126 2.22684e-125 2.142e-124 2.03727e-123 1.91569e-122 1.78073e-121 1.63613e-120 1.48568e-119 1.33313e-118 1.18195e-117 1.03526e-116 8.95706e-116 7.65397e-115 6.45881e-114 5.38146e-113 4.42655e-112 3.59405e-111 2.87997e-110 2.27724e-109 1.77655e-108 1.36716e-107 1.03768e-106 7.7666e-106 5.73122e-105 4.169e-104 2.98884e-103 2.11142e-102 1.46949e-101 1.00736e-100 6.80048e-100 4.52001e-99 2.95725e-98 1.90409e-97 1.20624e-96 7.51667e-96 4.60632e-95 2.7753e-94 1.64353e-93 9.56405e-93 5.4674e-92 3.06952e-91 1.69193e-90 9.15346e-90 4.85894e-89 2.52994e-88 1.29165e-87 6.46394e-87 3.16965e-86 1.52239e-85 7.15939e-85 3.29526e-84 1.48385e-83 6.5342e-83 2.8126e-82 1.18288e-81 4.85829e-81 1.94773e-80 7.61832e-80 2.90567e-79 1.08009e-78 3.91068e-78 1.37841e-77 4.72688e-77 1.57607e-76 5.10627e-76 1.60647e-75 4.90441e-75 1.45192e-74 4.16512e-74 1.15696e-73 3.10949e-73 8.07985e-73 2.02824e-72 4.91465e-72 1.14862e-71 2.58715e-71 5.61164e-71 1.17124e-70 2.35055e-70 4.53277e-70 8.39376e-70 1.49182e-69 2.54372e-69 4.16006e-69 6.52504e-69 9.81752e-69 1.41766e-68 1.96637e-68 2.62331e-68 3.37211e-68 4.18633e-68 5.03372e-68 5.88184e-68 6.70334e-68 7.47901e-68 8.19788e-68 8.85493e-68 9.4477e-68 9.97359e-68 1.04288e-67 1.08087e-67 1.11092e-67 1.13278e-67 1.1464e-67 1.15199e-67 1.15001e-67 1.14131e-67 1.12711e-67 1.10903e-67 1.08889e-67 1.06834e-67 1.04852e-67 1.02975e-67 1.01152e-67 9.92777e-68 9.72439e-68 9.4995e-68 9.25641e-68 9.00748e-68 8.77039e-68 8.5623e-68 8.39403e-68 8.26684e-68 8.17316e-68 8.10088e-68 8.03968e-68 7.98667e-68 7.94927e-68 7.94402e-68 7.99163e-68 8.11023e-68 8.30875e-68 8.58272e-68 8.91324e-68 9.26915e-68 9.6114e-68 9.89857e-68 1.00927e-67 1.01647e-67 1.00989e-67 9.89669e-68 9.57694e-68 9.17497e-68 8.73763e-68 8.31605e-68 7.9569e-68 7.69412e-68 7.54317e-68 7.49951e-68 7.54183e-68 7.6389e-68 7.7581e-68 7.87264e-68 7.96559e-68 8.02994e-68 8.06559e-68 8.07523e-68 8.06114e-68 8.02381e-68 7.96257e-68 7.8773e-68 7.77034e-68 7.64807e-68 7.52165e-68 7.40665e-68 7.32144e-68 7.28405e-68 7.30806e-68 7.39861e-68 7.55012e-68 7.74686e-68 7.96711e-68 8.18962e-68 8.40037e-68 8.59707e-68 8.78951e-68 8.9956e-68 9.23453e-68 9.51948e-68 9.85203e-68 1.02197e-67 1.05961e-67 1.09438e-67 1.12173e-67 1.13688e-67 1.13529e-67 1.11331e-67 1.06879e-67 1.00158e-67 9.13795e-68 8.0968e-68 6.95203e-68 5.77254e-68 4.62699e-68 3.57461e-68 2.65818e-68 1.90068e-68 1.30571e-68 8.61295e-69 5.45357e-69 3.31419e-69 1.93316e-69 1.08254e-69 5.8219e-70 3.00835e-70 1.49443e-70 7.14131e-71 3.28497e-71 1.45561e-71 6.21785e-72 2.5624e-72 1.01953e-72 3.91945e-73 1.45699e-73 5.2411e-74 1.82574e-74 6.16347e-75 2.01783e-75 6.41088e-76 1.97795e-76 5.93008e-77 1.72873e-77 4.90323e-78 1.35388e-78 3.64143e-79 9.54545e-80 2.43998e-80 6.08511e-81 1.48135e-81 3.5218e-82 8.18073e-83 1.85753e-83 4.12463e-84 8.96032e-85 1.90514e-85 3.96614e-86 8.08745e-87 1.61591e-87 3.16477e-88 6.07762e-89 1.14482e-89 2.11591e-90 3.83836e-91 6.83608e-92 1.19481e-92 1.99706e-93 0 
0 1.95109e-133 2.08443e-132 2.18525e-131 2.26699e-130 2.32713e-129 2.36359e-128 2.37497e-127 2.36066e-126 2.32088e-125 2.25668e-124 2.16987e-123 2.06299e-122 1.93914e-121 1.80186e-120 1.65491e-119 1.50218e-118 1.34743e-117 1.19419e-116 1.04559e-115 9.04313e-115 7.72469e-114 6.51611e-113 5.42724e-112 4.4626e-111 3.62202e-110 2.90135e-109 2.29333e-108 1.78847e-107 1.37585e-106 1.04391e-105 7.81054e-105 5.76166e-104 4.18971e-103 3.00266e-102 2.12048e-101 1.47529e-100 1.011e-99 6.82284e-99 4.53339e-98 2.96504e-97 1.90849e-96 1.20865e-95 7.52928e-95 4.61261e-94 2.77823e-93 1.64476e-92 9.56832e-92 5.46821e-91 3.06907e-90 1.69119e-89 9.1468e-89 4.85402e-88 2.52667e-87 1.28962e-86 6.45204e-86 3.16297e-85 1.51878e-84 7.14056e-84 3.28576e-83 1.4792e-82 6.51214e-82 2.80243e-81 1.17832e-80 4.83848e-80 1.93936e-79 7.5839e-79 2.89193e-78 1.07476e-77 3.8906e-77 1.37106e-76 4.70081e-76 1.56709e-75 5.0763e-75 1.59677e-74 4.87401e-74 1.4427e-73 4.13804e-73 1.14928e-72 3.08843e-72 8.02412e-72 2.01401e-71 4.87963e-71 1.14031e-70 2.5682e-70 5.57005e-70 1.16247e-69 2.33277e-69 4.49819e-69 8.32923e-69 1.48028e-68 2.52392e-68 4.12753e-68 6.47381e-68 9.74021e-68 1.40646e-67 1.95081e-67 2.60251e-67 3.34533e-67 4.15303e-67 4.99356e-67 5.83475e-67 6.64942e-67 7.41845e-67 8.13098e-67 8.78201e-67 9.36914e-67 9.88984e-67 1.03404e-66 1.07163e-66 1.10135e-66 1.12297e-66 1.13644e-66 1.14196e-66 1.14e-66 1.13138e-66 1.11733e-66 1.09945e-66 1.07953e-66 1.05921e-66 1.0396e-66 1.02103e-66 1.00299e-66 9.84444e-67 9.64312e-67 9.42047e-67 9.17981e-67 8.93337e-67 8.69865e-67 8.49264e-67 8.32605e-67 8.20016e-67 8.10747e-67 8.03601e-67 7.97558e-67 7.92331e-67 7.88654e-67 7.8816e-67 7.92899e-67 8.04659e-67 8.24323e-67 8.51447e-67 8.84161e-67 9.19381e-67 9.53242e-67 9.81647e-67 1.00084e-66 1.00794e-66 1.00141e-66 9.81369e-67 9.497e-67 9.09894e-67 8.6659e-67 8.24848e-67 7.8929e-67 7.63272e-67 7.48328e-67 7.4401e-67 7.48207e-67 7.57829e-67 7.69645e-67 7.81001e-67 7.90222e-67 7.96612e-67 8.00158e-67 8.01129e-67 7.99749e-67 7.96067e-67 7.90014e-67 7.81575e-67 7.70981e-67 7.58863e-67 7.46322e-67 7.34902e-67 7.26425e-67 7.22676e-67 7.25004e-67 7.33924e-67 7.48884e-67 7.68329e-67 7.90113e-67 8.12129e-67 8.32991e-67 8.52469e-67 8.71531e-67 8.91947e-67 9.15614e-67 9.43832e-67 9.76761e-67 1.01316e-66 1.05042e-66 1.08482e-66 1.11189e-66 1.12686e-66 1.12525e-66 1.10344e-66 1.05932e-66 9.92724e-67 9.05733e-67 8.02563e-67 6.8912e-67 5.72229e-67 4.58695e-67 3.54387e-67 2.63548e-67 1.88456e-67 1.29472e-67 8.54104e-68 5.40843e-68 3.28701e-68 1.91746e-68 1.07384e-68 5.77564e-69 2.98473e-69 1.48285e-69 7.08676e-70 3.26025e-70 1.44483e-70 6.1726e-71 2.5441e-71 1.01239e-71 3.89257e-72 1.44722e-72 5.20679e-73 1.8141e-73 6.1252e-74 2.00566e-74 6.3734e-75 1.96676e-75 5.8977e-76 1.71964e-76 4.87846e-77 1.34733e-77 3.6246e-78 9.50349e-79 2.42982e-79 6.06119e-80 1.47588e-80 3.50966e-81 8.15456e-82 1.85206e-82 4.11355e-83 8.93861e-84 1.90104e-84 3.95867e-85 8.07445e-86 1.61377e-86 3.16146e-87 6.07302e-88 1.14429e-88 2.11555e-89 3.83885e-90 6.83903e-91 1.19569e-91 1.99912e-92 0 
0 1.96289e-132 2.09624e-131 2.19677e-130 2.27805e-129 2.33758e-128 2.37328e-127 2.38379e-126 2.36852e-125 2.32772e-124 2.26246e-123 2.1746e-122 2.06671e-121 1.9419e-120 1.80374e-119 1.65603e-118 1.50263e-117 1.34734e-116 1.19366e-115 1.04475e-114 9.03253e-114 7.71282e-113 6.50374e-112 5.41498e-111 4.45092e-110 3.61125e-109 2.8917e-108 2.2849e-107 1.78126e-106 1.36983e-105 1.03898e-104 7.771e-104 5.73053e-103 4.16566e-102 2.98442e-101 2.10689e-100 1.46535e-99 1.00386e-98 6.77241e-98 4.49843e-97 2.94123e-96 1.89256e-95 1.19818e-94 7.46174e-94 4.56981e-93 2.75161e-92 1.62851e-91 9.47094e-91 5.41095e-90 3.03604e-89 1.67251e-88 9.04319e-88 4.79769e-87 2.49665e-86 1.27396e-85 6.37195e-85 3.12288e-84 1.49914e-83 7.04644e-83 3.24163e-82 1.45898e-81 6.42157e-81 2.7628e-80 1.16139e-79 4.7679e-79 1.91065e-78 7.47004e-78 2.84792e-77 1.05819e-76 3.82988e-76 1.34941e-75 4.62572e-75 1.54179e-74 4.99348e-74 1.57046e-73 4.79297e-73 1.4185e-72 4.06805e-72 1.12969e-71 3.0354e-71 7.8854e-71 1.97897e-70 4.79422e-70 1.12025e-69 2.52278e-69 5.47109e-69 1.14173e-68 2.291e-68 4.41737e-68 8.17915e-68 1.45354e-67 2.47823e-67 4.05267e-67 6.35624e-67 9.56309e-67 1.38086e-66 1.91528e-66 2.55507e-66 3.28431e-66 4.0772e-66 4.90229e-66 5.72794e-66 6.52741e-66 7.28195e-66 7.98084e-66 8.61919e-66 9.19466e-66 9.70484e-66 1.01461e-65 1.05142e-65 1.08052e-65 1.10167e-65 1.11485e-65 1.12024e-65 1.11832e-65 1.10987e-65 1.09612e-65 1.07862e-65 1.05912e-65 1.03923e-65 1.02004e-65 1.00186e-65 9.84199e-66 9.66032e-66 9.46312e-66 9.245e-66 9.00924e-66 8.7678e-66 8.53785e-66 8.33604e-66 8.17284e-66 8.04953e-66 7.95878e-66 7.88888e-66 7.82982e-66 7.77882e-66 7.74305e-66 7.73847e-66 7.78513e-66 7.90052e-66 8.09327e-66 8.35902e-66 8.67943e-66 9.02431e-66 9.35583e-66 9.63385e-66 9.82161e-66 9.89093e-66 9.82675e-66 9.63024e-66 9.31984e-66 8.92977e-66 8.50546e-66 8.09647e-66 7.74808e-66 7.49318e-66 7.34679e-66 7.30452e-66 7.34572e-66 7.44011e-66 7.55602e-66 7.66745e-66 7.75796e-66 7.82074e-66 7.85566e-66 7.86534e-66 7.85197e-66 7.81602e-66 7.75681e-66 7.67417e-66 7.57034e-66 7.45146e-66 7.32835e-66 7.21614e-66 7.13266e-66 7.09547e-66 7.11781e-66 7.20475e-66 7.35092e-66 7.54111e-66 7.75431e-66 7.96988e-66 8.17424e-66 8.36511e-66 8.55195e-66 8.75207e-66 8.98405e-66 9.2606e-66 9.58324e-66 9.93981e-66 1.03048e-65 1.06417e-65 1.09066e-65 1.1053e-65 1.10369e-65 1.08229e-65 1.03902e-65 9.73708e-66 8.88404e-66 7.87234e-66 6.75986e-66 5.61349e-66 4.49996e-66 3.47685e-66 2.58579e-66 1.84914e-66 1.27046e-66 8.38158e-67 5.30782e-67 3.2261e-67 1.88207e-67 1.05411e-67 5.67002e-68 2.93042e-68 1.45601e-68 6.9592e-69 3.20192e-69 1.41914e-69 6.06361e-70 2.4995e-70 9.94772e-71 3.82539e-71 1.42246e-71 5.11848e-72 1.78361e-72 6.02328e-73 1.97263e-73 6.26957e-74 1.93508e-74 5.80381e-75 1.6926e-75 4.80272e-76 1.32669e-76 3.56985e-77 9.36198e-78 2.39418e-78 5.97366e-79 1.45491e-79 3.46063e-80 8.04262e-81 1.82709e-81 4.05914e-82 8.82265e-83 1.87687e-83 3.9094e-84 7.97612e-85 1.59456e-85 3.12471e-86 6.00412e-87 1.13163e-87 2.09276e-88 3.79863e-89 6.76939e-90 1.18387e-90 1.97993e-91 0 
0 1.95342e-131 2.08532e-130 2.18448e-129 2.26443e-128 2.3227e-127 2.35727e-126 2.3668e-125 2.35074e-124 2.30936e-123 2.24377e-122 2.15582e-121 2.04808e-120 1.92368e-119 1.78615e-118 1.63926e-117 1.48687e-116 1.33271e-115 1.18027e-114 1.03265e-113 8.92466e-113 7.61795e-112 6.42143e-111 5.34453e-110 4.39145e-109 3.56173e-108 2.85103e-107 2.25197e-106 1.75499e-105 1.34916e-104 1.02295e-103 7.64845e-103 5.63825e-102 4.09719e-101 2.93438e-100 2.07088e-99 1.43983e-98 9.86052e-98 6.65012e-97 4.41577e-96 2.88627e-95 1.85661e-94 1.17505e-93 7.31543e-93 4.47884e-92 2.69601e-91 1.59513e-90 9.27404e-90 5.29691e-89 2.9712e-88 1.63632e-87 8.84502e-87 4.69125e-86 2.4406e-85 1.24502e-84 6.22557e-84 3.05034e-83 1.46395e-82 6.87928e-82 3.16396e-81 1.42368e-80 6.26471e-80 2.6947e-79 1.13251e-78 4.64829e-78 1.86232e-77 7.27958e-77 2.77475e-76 1.0308e-75 3.73004e-75 1.31399e-74 4.50351e-74 1.5008e-73 4.85993e-73 1.52822e-72 4.66335e-72 1.37994e-71 3.95694e-71 1.09869e-70 2.95176e-70 7.66724e-70 1.92402e-69 4.66064e-69 1.08893e-68 2.45206e-68 5.31731e-68 1.10956e-67 2.22631e-67 4.29241e-67 7.9474e-67 1.4123e-66 2.40783e-66 3.93743e-66 6.17535e-66 9.29077e-66 1.34152e-65 1.86069e-65 2.48222e-65 3.19062e-65 3.96083e-65 4.76227e-65 5.56416e-65 6.34051e-65 7.07305e-65 7.75136e-65 8.37069e-65 8.92881e-65 9.42341e-65 9.85108e-65 1.02077e-64 1.04895e-64 1.06944e-64 1.08219e-64 1.08741e-64 1.08553e-64 1.07735e-64 1.06403e-64 1.04708e-64 1.02819e-64 1.00893e-64 9.90344e-65 9.72736e-65 9.55626e-65 9.38021e-65 9.18907e-65 8.97765e-65 8.74911e-65 8.51507e-65 8.29218e-65 8.09655e-65 7.93837e-65 7.81886e-65 7.73095e-65 7.66328e-65 7.60619e-65 7.55695e-65 7.52252e-65 7.51833e-65 7.56379e-65 7.67582e-65 7.86277e-65 8.12038e-65 8.4309e-65 8.76506e-65 9.08621e-65 9.35547e-65 9.53722e-65 9.60418e-65 9.54176e-65 9.35109e-65 9.05007e-65 8.67185e-65 8.26047e-65 7.86397e-65 7.52621e-65 7.27911e-65 7.13722e-65 7.0963e-65 7.13632e-65 7.22793e-65 7.34044e-65 7.44863e-65 7.53655e-65 7.59758e-65 7.6316e-65 7.64114e-65 7.62832e-65 7.5936e-65 7.53629e-65 7.45621e-65 7.35551e-65 7.24013e-65 7.12055e-65 7.01143e-65 6.9301e-65 6.8936e-65 6.91479e-65 6.99863e-65 7.13994e-65 7.32401e-65 7.53046e-65 7.73932e-65 7.93739e-65 8.12247e-65 8.30367e-65 8.49778e-65 8.72277e-65 8.99093e-65 9.30373e-65 9.64937e-65 1.00031e-64 1.03295e-64 1.05862e-64 1.07278e-64 1.07119e-64 1.05041e-64 1.0084e-64 9.45034e-65 8.62263e-65 7.64095e-65 6.56144e-65 5.44897e-65 4.3683e-65 3.37531e-65 2.51041e-65 1.79534e-65 1.23357e-65 8.13873e-66 5.15438e-66 3.13306e-66 1.82793e-66 1.02387e-66 5.50777e-67 2.84681e-67 1.4146e-67 6.76195e-68 3.11149e-68 1.37922e-68 5.89369e-69 2.42976e-69 9.67141e-70 3.71964e-70 1.38333e-70 4.97843e-71 1.73508e-71 5.86033e-72 1.91959e-72 6.10203e-73 1.88371e-73 5.6508e-74 1.64829e-74 4.67793e-75 1.29248e-75 3.47853e-76 9.12445e-77 2.33395e-77 5.8247e-78 1.41896e-78 3.37591e-79 7.84763e-80 1.78323e-80 3.96269e-81 8.61523e-82 1.83322e-82 3.81949e-83 7.79479e-84 1.55873e-84 3.05535e-85 5.8725e-86 1.10714e-86 2.04806e-87 3.71857e-88 6.62869e-89 1.15961e-89 1.93991e-90 0 
0 1.92277e-130 2.05183e-129 2.14856e-128 2.22633e-127 2.28275e-126 2.31583e-125 2.3243e-124 2.30765e-123 2.26617e-122 2.20097e-121 2.1139e-120 2.0075e-119 1.88486e-118 1.74945e-117 1.60499e-116 1.45524e-115 1.30388e-114 1.15432e-113 1.00957e-112 8.72207e-112 7.44234e-111 6.27114e-110 5.21758e-109 4.28562e-108 3.47467e-107 2.78037e-106 2.19539e-105 1.7103e-104 1.31435e-103 9.96214e-103 7.44603e-102 5.48717e-101 3.98607e-100 2.85385e-99 2.01338e-98 1.39939e-97 9.58048e-97 6.45918e-96 4.28762e-95 2.80161e-94 1.80159e-93 1.13987e-92 7.09427e-92 4.34212e-91 2.61293e-90 1.54551e-89 8.98294e-89 5.12916e-88 2.87628e-87 1.5836e-86 8.55767e-86 4.53761e-85 2.36003e-84 1.2036e-83 6.01689e-83 2.94734e-82 1.41416e-81 6.64368e-81 3.05486e-80 1.37426e-79 6.04586e-79 2.59998e-78 1.09246e-77 4.48296e-77 1.7957e-76 7.01777e-76 2.67443e-75 9.9334e-75 3.59383e-74 1.26578e-73 4.33755e-73 1.44526e-72 4.67933e-72 1.47121e-71 4.48874e-71 1.32809e-70 3.80777e-70 1.05715e-69 2.83982e-69 7.37568e-69 1.85067e-68 4.48255e-68 1.04724e-67 2.35798e-67 5.11295e-67 1.06685e-66 2.1405e-66 4.12676e-66 7.64037e-66 1.35769e-65 2.31466e-65 3.78498e-65 5.93612e-65 8.93072e-65 1.28952e-64 1.78854e-64 2.38595e-64 3.06684e-64 3.80711e-64 4.57734e-64 5.34792e-64 6.09383e-64 6.79748e-64 7.44884e-64 8.04335e-64 8.57889e-64 9.05331e-64 9.46338e-64 9.80521e-64 1.00753e-63 1.02715e-63 1.03937e-63 1.04436e-63 1.04255e-63 1.03471e-63 1.02194e-63 1.00569e-63 9.87598e-64 9.69142e-64 9.51335e-64 9.34461e-64 9.1806e-64 9.01182e-64 8.82853e-64 8.62577e-64 8.40659e-64 8.18214e-64 7.96838e-64 7.78076e-64 7.62907e-64 7.51449e-64 7.43023e-64 7.36544e-64 7.31083e-64 7.2638e-64 7.231e-64 7.22722e-64 7.27104e-64 7.37865e-64 7.55804e-64 7.80511e-64 8.10284e-64 8.42318e-64 8.73098e-64 8.98899e-64 9.16306e-64 9.22705e-64 9.16698e-64 8.98394e-64 8.69511e-64 8.33228e-64 7.93767e-64 7.55735e-64 7.2334e-64 6.9964e-64 6.86033e-64 6.82114e-64 6.85961e-64 6.94759e-64 7.05565e-64 7.15958e-64 7.24408e-64 7.30278e-64 7.33556e-64 7.34486e-64 7.33271e-64 7.29953e-64 7.24464e-64 7.16786e-64 7.07123e-64 6.96043e-64 6.8455e-64 6.74052e-64 6.66212e-64 6.62667e-64 6.64655e-64 6.72654e-64 6.8617e-64 7.03795e-64 7.23576e-64 7.43596e-64 7.6259e-64 7.80344e-64 7.97732e-64 8.16359e-64 8.37947e-64 8.63674e-64 8.93678e-64 9.26826e-64 9.60744e-64 9.92038e-64 1.01663e-63 1.0302e-63 1.02864e-63 1.00866e-63 9.6833e-64 9.07491e-64 8.28029e-64 7.33784e-64 6.30141e-64 5.23328e-64 4.1956e-64 3.24203e-64 2.41142e-64 1.72464e-64 1.18507e-64 7.81919e-65 4.95232e-65 3.01043e-65 1.75651e-65 9.83935e-66 5.29338e-66 2.73622e-66 1.35977e-66 6.50044e-67 2.99145e-67 1.32615e-67 5.66754e-68 2.3368e-68 9.30253e-69 3.57823e-69 1.33092e-69 4.7905e-70 1.66983e-70 5.64083e-71 1.84799e-71 5.87542e-72 1.81407e-72 5.44287e-73 1.58794e-73 4.50751e-74 1.24564e-74 3.35315e-75 8.79743e-76 2.25079e-76 5.6184e-77 1.36901e-77 3.25783e-78 7.57493e-79 1.72169e-79 3.82686e-80 8.32201e-81 1.77128e-81 3.6914e-82 7.53538e-83 1.50726e-83 2.95527e-84 5.68172e-85 1.07148e-85 1.98265e-86 3.60084e-87 6.42071e-88 1.12355e-88 1.88013e-89 0 