# vtk DataFile Version 3.0
Gray-Scott Simulation Output
ASCII
DATASET STRUCTURED_POINTS
DIMENSIONS 256 256 1
SPACING 1.0 1.0 1.0
ORIGIN 0 0 0
POINT_DATA 65536
SCALARS u double
LOOKUP_TABLE default
0 0 0 0 0 0 0 0 0 0 0 0 0 0 0 0 0 0 0 0 0 0 0 0 0 0 0 0 0 0 0 0 0 0 0 0 0 0 0 0 0 0 0 0 0 0 0 0 0 0 0 0 0 0 0 0 0 0 0 0 0 0 0 0 0 0 0 0 0 0 0 0 0 0 0 0 0 0 0 0 0 0 0 0 0 0 0 0 0 0 0 0 0 0 0 0 0 0 0 0 0 0 0 0 0 0 0 0 0 0 0 0 0 0 0 0 0 0 0 0 0 0 0 0 0 0 0 0 0 0 0 0 0 0 0 0 0 0 0 0 0 0 0 0 0 0 0 0 0 0 0 0 0 0 0 0 0 0 0 0 0 0 0 0 0 0 0 0 0 0 0 0 0 0 0 0 0 0 0 0 0 0 0 0 0 0 0 0 0 0 0 0 0 0 0 0 0 0 0 0 0 0 0 0 0 0 0 0 0 0 0 0 0 0 0 0 0 0 0 0 0 0 0 0 0 0 0 0 0 0 0 0 0 0 0 0 0 0 0 0 0 0 0 0 0 0 0 0 0 0 0 0 0 0 0 0 
0 3.71737e-133 3.66212e-132 3.53514e-131 3.37703e-130 3.1924e-129 2.98616e-128 2.76362e-127 2.53027e-126 2.29157e-125 2.05273e-124 1.8185e-123 1.59305e-122 1.37985e-121 1.1816e-120 1.00021e-119 8.36844e-119 6.91948e-118 5.65359e-117 4.56395e-116 3.63969e-115 2.86707e-114 2.23049e-113 1.71352e-112 1.29971e-111 9.73195e-111 7.19266e-110 5.24622e-109 3.77573e-108 2.68091e-107 1.87767e-106 1.29699e-105 8.83404e-105 5.9321e-104 3.92648e-103 2.56132e-102 1.64628e-101 1.04241e-100 6.50101e-100 3.99242e-99 2.41386e-98 1.43653e-97 8.41283e-97 4.84724e-96 2.74706e-95 1.53093e-94 8.38772e-94 4.51672e-93 2.38987e-92 1.24216e-91 6.34027e-91 3.17716e-90 1.56257e-89 7.53998e-89 3.56858e-88 1.65603e-87 7.53253e-87 3.35706e-86 1.46543e-85 6.26315e-85 2.61985e-84 1.07211e-83 4.29045e-83 1.67834e-82 6.41471e-82 2.39441e-81 8.72443e-81 3.10158e-80 1.07527e-79 3.63339e-79 1.19602e-78 3.83315e-78 1.19541e-77 3.62549e-77 1.06868e-76 3.05975e-76 8.50379e-76 2.29269e-75 5.99233e-75 1.51731e-74 3.71952e-74 8.82137e-74 2.02266e-73 4.48077e-73 9.58369e-73 1.97779e-72 3.93568e-72 7.54746e-72 1.39409e-71 2.47905e-71 4.24257e-71 6.98573e-71 1.1066e-70 1.68655e-70 2.47386e-70 3.4944e-70 4.75754e-70 6.25114e-70 7.94024e-70 9.77063e-70 1.16767e-69 1.35919e-69 1.54576e-69 1.72297e-69 1.88791e-69 2.03891e-69 2.17498e-69 2.29535e-69 2.39922e-69 2.48578e-69 2.55429e-69 2.60434e-69 2.63593e-69 2.64961e-69 2.64661e-69 2.62889e-69 2.59919e-69 2.5609e-69 2.51757e-69 2.47241e-69 2.42756e-69 2.38375e-69 2.34028e-69 2.29557e-69 2.24802e-69 2.19693e-69 2.1431e-69 2.08877e-69 2.03707e-69 1.99103e-69 1.95263e-69 1.92228e-69 1.89895e-69 1.88087e-69 1.86658e-69 1.85587e-69 1.85024e-69 1.85266e-69 1.86674e-69 1.89554e-69 1.94037e-69 1.99999e-69 2.0704e-69 2.1452e-69 2.21638e-69 2.27549e-69 2.3148e-69 2.32845e-69 2.31344e-69 2.27021e-69 2.20283e-69 2.11855e-69 2.02688e-69 1.93805e-69 1.8614e-69 1.80375e-69 1.76842e-69 1.75489e-69 1.75943e-69 1.77624e-69 1.79904e-69 1.82237e-69 1.8424e-69 1.85706e-69 1.86569e-69 1.86837e-69 1.86538e-69 1.85688e-69 1.84297e-69 1.82392e-69 1.80051e-69 1.77432e-69 1.74782e-69 1.7243e-69 1.70745e-69 1.70074e-69 1.70668e-69 1.72613e-69 1.75799e-69 1.79935e-69 1.84629e-69 1.89504e-69 1.94308e-69 1.98992e-69 2.03714e-69 2.08773e-69 2.14486e-69 2.21057e-69 2.28475e-69 2.36453e-69 2.44426e-69 2.51594e-69 2.57007e-69 2.5966e-69 2.58622e-69 2.53158e-69 2.42859e-69 2.27727e-69 2.08228e-69 1.85257e-69 1.60053e-69 1.34039e-69 1.08641e-69 8.51052e-70 6.43588e-70 4.6939e-70 3.29919e-70 2.23351e-70 1.45585e-70 9.13505e-71 5.51768e-71 3.20848e-71 1.79654e-71 9.68978e-72 5.03624e-72 2.52363e-72 1.21985e-72 5.69109e-73 2.56426e-73 1.11656e-73 4.70145e-74 1.91558e-74 7.55742e-75 2.88892e-75 1.0707e-75 3.8499e-76 1.34387e-76 4.55677e-77 1.50181e-77 4.81379e-78 1.5015e-78 4.56006e-79 1.34915e-79 3.89071e-80 1.0942e-80 3.00248e-81 8.04247e-82 2.10392e-82 5.37771e-83 1.34364e-83 3.28304e-84 7.84785e-85 1.83605e-85 4.20574e-86 9.43606e-87 2.07437e-87 4.46976e-88 9.44344e-89 1.95691e-89 3.97873e-90 7.93938e-91 1.55535e-91 2.99217e-92 5.64883e-93 1.01569e-93 0 
0 3.65962e-132 3.60401e-131 3.47785e-130 3.32116e-129 3.13851e-128 2.93475e-127 2.71512e-126 2.48502e-125 2.24983e-124 2.01466e-123 1.78418e-122 1.56247e-121 1.35291e-120 1.15815e-119 9.80039e-119 8.19697e-118 6.77549e-117 5.53415e-116 4.46608e-115 3.5605e-114 2.80379e-113 2.18057e-112 1.67465e-111 1.26982e-110 9.5052e-110 7.02289e-109 5.12081e-108 3.68434e-107 2.61523e-106 1.83112e-105 1.26445e-104 8.60986e-104 5.77985e-103 3.82459e-102 2.49413e-101 1.60263e-100 1.01448e-99 6.32504e-99 3.88326e-98 2.34721e-97 1.39648e-96 8.17606e-96 4.70955e-95 2.66832e-94 1.48665e-93 8.14304e-93 4.38383e-92 2.31897e-91 1.20501e-90 6.14912e-90 3.08062e-89 1.51473e-88 7.30742e-88 3.45771e-87 1.60421e-86 7.29521e-86 3.25058e-85 1.41864e-84 6.06192e-84 2.53515e-83 1.03724e-82 4.15008e-82 1.62312e-81 6.2025e-81 2.31478e-80 8.43279e-80 2.99739e-79 1.03897e-78 3.51019e-78 1.15529e-77 3.70205e-77 1.15436e-76 3.50051e-76 1.0317e-75 2.95351e-75 8.20754e-75 2.21256e-74 5.78229e-74 1.46398e-73 3.58845e-73 8.50975e-73 1.95105e-72 4.3218e-72 9.24303e-72 1.90736e-71 3.79532e-71 7.27791e-71 1.34424e-70 2.39031e-70 4.09055e-70 6.73521e-70 1.06689e-69 1.62599e-69 2.38499e-69 3.3688e-69 4.58648e-69 6.02628e-69 7.6545e-69 9.41883e-69 1.1256e-68 1.31017e-68 1.48995e-68 1.66067e-68 1.81954e-68 1.96493e-68 2.0959e-68 2.21172e-68 2.31164e-68 2.39488e-68 2.46075e-68 2.50885e-68 2.5392e-68 2.55234e-68 2.54944e-68 2.53239e-68 2.50384e-68 2.46703e-68 2.42538e-68 2.38197e-68 2.33886e-68 2.29674e-68 2.25494e-68 2.21194e-68 2.16621e-68 2.11707e-68 2.06528e-68 2.01301e-68 1.96328e-68 1.91899e-68 1.88205e-68 1.85287e-68 1.83044e-68 1.81306e-68 1.79935e-68 1.78909e-68 1.78372e-68 1.7861e-68 1.79969e-68 1.82743e-68 1.87057e-68 1.92793e-68 1.99565e-68 2.06757e-68 2.13601e-68 2.19283e-68 2.23059e-68 2.24367e-68 2.22919e-68 2.18757e-68 2.12271e-68 2.04162e-68 1.95341e-68 1.86795e-68 1.7942e-68 1.73874e-68 1.70476e-68 1.69176e-68 1.69614e-68 1.71234e-68 1.7343e-68 1.75678e-68 1.77608e-68 1.79023e-68 1.79857e-68 1.80118e-68 1.79833e-68 1.79018e-68 1.77681e-68 1.75848e-68 1.73595e-68 1.71072e-68 1.68518e-68 1.66248e-68 1.64618e-68 1.63963e-68 1.64525e-68 1.66388e-68 1.69445e-68 1.73418e-68 1.7793e-68 1.82617e-68 1.87237e-68 1.91744e-68 1.96289e-68 2.01158e-68 2.06655e-68 2.12979e-68 2.20116e-68 2.27791e-68 2.35458e-68 2.42352e-68 2.47554e-68 2.50101e-68 2.49094e-68 2.43829e-68 2.33909e-68 2.19337e-68 2.0056e-68 1.7844e-68 1.54169e-68 1.29117e-68 1.04657e-68 8.19878e-69 6.20045e-69 4.52244e-69 3.17885e-69 2.15216e-69 1.40291e-69 8.80344e-70 5.31774e-70 3.09243e-70 1.73169e-70 9.3407e-71 4.8552e-71 2.43312e-71 1.1762e-71 5.488e-72 2.473e-72 1.07693e-72 4.53511e-73 1.84802e-73 7.29177e-74 2.78772e-74 1.03333e-74 3.71605e-75 1.29733e-75 4.39962e-76 1.45024e-76 4.64923e-77 1.45041e-77 4.40564e-78 1.30369e-78 3.76029e-79 1.05771e-79 2.90291e-80 7.77728e-81 2.03495e-81 5.20247e-82 1.30013e-82 3.17738e-83 7.59694e-84 1.77773e-84 4.07308e-85 9.14051e-86 2.00987e-86 4.33178e-87 9.15413e-88 1.89742e-88 3.85873e-89 7.70185e-90 1.5092e-90 2.90413e-91 5.48404e-92 9.86301e-93 0 
0 3.53022e-131 3.47538e-130 3.35254e-129 3.20038e-128 3.02333e-127 2.82606e-126 2.61366e-125 2.39134e-124 2.16427e-123 1.93738e-122 1.71516e-121 1.50152e-120 1.2997e-119 1.11222e-118 9.40859e-118 7.86666e-117 6.50031e-116 5.30763e-115 4.28188e-114 3.41254e-113 2.68641e-112 2.0886e-111 1.6035e-110 1.21549e-109 9.0956e-109 6.71815e-108 4.89707e-107 3.52227e-106 2.49942e-105 1.74949e-104 1.20772e-103 8.22107e-103 5.5172e-102 3.64971e-101 2.37938e-100 1.52846e-99 9.67249e-99 6.02881e-98 3.70034e-97 2.23602e-96 1.32995e-95 7.78443e-95 4.48275e-94 2.53913e-93 1.4143e-92 7.74469e-92 4.1683e-91 2.20439e-90 1.14518e-89 5.84238e-89 2.92623e-88 1.43847e-87 6.93788e-87 3.28209e-86 1.52239e-85 6.92154e-85 3.0834e-84 1.34539e-83 5.74771e-83 2.40325e-82 9.83076e-82 3.9326e-81 1.53776e-80 5.87524e-80 2.19224e-79 7.985e-79 2.83774e-78 9.83472e-78 3.32215e-77 1.09323e-76 3.50268e-76 1.09204e-75 3.31108e-75 9.75744e-75 2.79298e-74 7.76054e-74 2.09183e-73 5.4662e-73 1.38382e-72 3.39164e-72 8.04236e-72 1.84374e-71 4.08381e-71 8.73346e-71 1.8021e-70 3.58568e-70 6.87557e-70 1.26987e-69 2.25798e-69 3.86398e-69 6.36198e-69 1.00774e-68 1.53582e-68 2.25269e-68 3.18188e-68 4.33194e-68 5.69176e-68 7.22948e-68 8.89566e-68 1.06305e-67 1.23732e-67 1.40704e-67 1.56817e-67 1.71807e-67 1.85522e-67 1.97871e-67 2.08789e-67 2.18205e-67 2.26047e-67 2.32251e-67 2.3678e-67 2.39637e-67 2.40873e-67 2.40598e-67 2.38991e-67 2.36302e-67 2.32835e-67 2.28914e-67 2.24826e-67 2.20766e-67 2.16799e-67 2.12862e-67 2.08811e-67 2.04502e-67 1.99871e-67 1.94991e-67 1.90065e-67 1.85379e-67 1.81205e-67 1.77725e-67 1.74975e-67 1.72862e-67 1.71227e-67 1.69938e-67 1.68975e-67 1.68473e-67 1.68702e-67 1.69987e-67 1.72605e-67 1.76673e-67 1.82078e-67 1.88459e-67 1.95234e-67 2.0168e-67 2.0703e-67 2.10583e-67 2.11812e-67 2.10442e-67 2.06516e-67 2.00402e-67 1.92757e-67 1.84443e-67 1.76387e-67 1.69436e-67 1.6421e-67 1.61008e-67 1.59784e-67 1.60198e-67 1.61728e-67 1.63801e-67 1.65923e-67 1.67746e-67 1.69082e-67 1.69871e-67 1.70121e-67 1.69855e-67 1.69089e-67 1.6783e-67 1.66103e-67 1.63978e-67 1.61597e-67 1.59185e-67 1.57039e-67 1.55495e-67 1.54869e-67 1.55389e-67 1.57136e-67 1.6001e-67 1.63748e-67 1.67996e-67 1.72411e-67 1.76765e-67 1.81013e-67 1.85298e-67 1.89888e-67 1.95071e-67 2.01032e-67 2.07759e-67 2.14991e-67 2.22216e-67 2.2871e-67 2.33608e-67 2.36003e-67 2.35047e-67 2.30075e-67 2.20714e-67 2.06967e-67 1.89253e-67 1.68385e-67 1.45487e-67 1.21851e-67 9.87717e-68 7.73813e-68 5.85238e-68 4.26879e-68 3.00073e-68 2.03169e-68 1.32446e-68 8.31164e-69 5.02099e-69 2.92006e-69 1.63528e-69 8.82133e-70 4.5856e-70 2.29821e-70 1.11108e-70 5.18462e-71 2.33652e-71 1.0176e-71 4.28574e-72 1.7466e-72 6.89241e-73 2.63537e-73 9.76985e-74 3.51389e-74 1.22693e-74 4.16148e-75 1.37195e-75 4.39894e-76 1.37255e-76 4.16984e-77 1.23413e-77 3.56028e-78 1.00164e-78 2.74953e-79 7.36777e-80 1.92818e-80 4.93052e-81 1.23242e-81 3.01255e-82 7.20439e-83 1.68625e-83 3.86434e-84 8.67406e-85 1.90775e-85 4.11266e-86 8.69317e-87 1.80231e-87 3.66623e-88 7.31947e-89 1.43464e-89 2.76137e-90 5.21582e-91 9.38295e-92 0 
0 3.36988e-130 3.31639e-129 3.19806e-128 3.05184e-127 2.88201e-126 2.69304e-125 2.48977e-124 2.27721e-123 2.06027e-122 1.84366e-121 1.63163e-120 1.42791e-119 1.23557e-118 1.05699e-117 8.93842e-117 7.47106e-116 6.17139e-115 5.03741e-114 4.06256e-113 3.23669e-112 2.54715e-111 1.9797e-110 1.51941e-109 1.15138e-108 8.61316e-108 6.35982e-107 4.63443e-106 3.33234e-105 2.36391e-104 1.65414e-103 1.14155e-102 7.76833e-102 5.21181e-101 3.44667e-100 2.24636e-99 1.44259e-98 9.12647e-98 5.68686e-97 3.48948e-96 2.10801e-95 1.25347e-94 7.33476e-94 4.22266e-93 2.39118e-92 1.33154e-91 7.28961e-91 3.92236e-90 2.0738e-89 1.07707e-88 5.49356e-88 2.75086e-87 1.35194e-86 6.51902e-86 3.08323e-85 1.42983e-84 6.49928e-84 2.89467e-83 1.26277e-82 5.39363e-82 2.25475e-81 9.22148e-81 3.68816e-80 1.44191e-79 5.50802e-79 2.05486e-78 7.48332e-78 2.65901e-77 9.21384e-77 3.11194e-76 1.02391e-75 3.2801e-75 1.0225e-74 3.09985e-74 9.13384e-74 2.61418e-73 7.26291e-73 1.95749e-72 5.11466e-72 1.2947e-71 3.17296e-71 7.52321e-71 1.7246e-70 3.81966e-70 8.16807e-70 1.68534e-69 3.3532e-69 6.42951e-69 1.18744e-68 2.11135e-68 3.61295e-68 5.94852e-68 9.42229e-68 1.43595e-67 2.10618e-67 2.97491e-67 4.05011e-67 5.32139e-67 6.75894e-67 8.31651e-67 9.93815e-67 1.15669e-66 1.31529e-66 1.46583e-66 1.60583e-66 1.73389e-66 1.84916e-66 1.95102e-66 2.03885e-66 2.11198e-66 2.16981e-66 2.21202e-66 2.23864e-66 2.25014e-66 2.24757e-66 2.23258e-66 2.20751e-66 2.17519e-66 2.13864e-66 2.10054e-66 2.0627e-66 2.02572e-66 1.98901e-66 1.95124e-66 1.91104e-66 1.86785e-66 1.82233e-66 1.77638e-66 1.73267e-66 1.69374e-66 1.66128e-66 1.63563e-66 1.61594e-66 1.60071e-66 1.58871e-66 1.57977e-66 1.57513e-66 1.57731e-66 1.58934e-66 1.61378e-66 1.65174e-66 1.70217e-66 1.76168e-66 1.82485e-66 1.88494e-66 1.9348e-66 1.96791e-66 1.97932e-66 1.96651e-66 1.92985e-66 1.87278e-66 1.80145e-66 1.72388e-66 1.64873e-66 1.58388e-66 1.53513e-66 1.50526e-66 1.49386e-66 1.49774e-66 1.51203e-66 1.5314e-66 1.55123e-66 1.56827e-66 1.58077e-66 1.58816e-66 1.59052e-66 1.58807e-66 1.58094e-66 1.56921e-66 1.5531e-66 1.53326e-66 1.51102e-66 1.48847e-66 1.46838e-66 1.4539e-66 1.44798e-66 1.45275e-66 1.46897e-66 1.4957e-66 1.53052e-66 1.57011e-66 1.61127e-66 1.65188e-66 1.69151e-66 1.7315e-66 1.77434e-66 1.82271e-66 1.87833e-66 1.94109e-66 2.00855e-66 2.07593e-66 2.13647e-66 2.18213e-66 2.20441e-66 2.19542e-66 2.14896e-66 2.06152e-66 1.93314e-66 1.76772e-66 1.57286e-66 1.35902e-66 1.13828e-66 9.22726e-67 7.22933e-67 5.46785e-67 3.98852e-67 2.80386e-67 1.8985e-67 1.2377e-67 7.76767e-68 4.69267e-68 2.72929e-68 1.52855e-68 8.24617e-69 4.28694e-69 2.14869e-69 1.03888e-69 4.84815e-70 2.18509e-70 9.51745e-71 4.00877e-71 1.63391e-71 6.44843e-72 2.4659e-72 9.14273e-73 3.28877e-73 1.14848e-73 3.89595e-74 1.2846e-74 4.11948e-75 1.28555e-75 3.90619e-76 1.15629e-76 3.33631e-77 9.38795e-78 2.57749e-78 6.90808e-79 1.80823e-79 4.62471e-80 1.15622e-80 2.82686e-81 6.76176e-82 1.58299e-82 3.62851e-83 8.14654e-84 1.79214e-84 3.86433e-85 8.17021e-86 1.6943e-86 3.44735e-87 6.88421e-88 1.34967e-88 2.59848e-89 4.90942e-90 8.83392e-91 0 
0 3.18329e-129 3.13169e-128 3.0189e-127 2.87987e-126 2.71867e-125 2.53953e-124 2.34705e-123 2.14593e-122 1.94085e-121 1.7362e-120 1.53601e-119 1.34378e-118 1.16238e-117 9.9405e-117 8.40337e-116 7.02153e-115 5.79816e-114 4.73121e-113 3.81438e-112 3.03799e-111 2.39001e-110 1.85698e-109 1.42477e-108 1.07932e-107 8.07157e-107 5.95806e-106 4.34033e-105 3.11991e-104 2.21254e-103 1.54775e-102 1.06781e-101 7.26436e-101 4.87226e-100 3.22118e-99 2.09878e-98 1.34743e-97 8.52203e-97 5.30872e-96 3.25654e-95 1.96675e-94 1.16916e-93 6.83954e-93 3.93651e-92 2.22855e-91 1.24066e-90 6.79032e-90 3.65279e-89 1.9308e-88 1.00255e-87 5.11224e-87 2.55931e-86 1.2575e-85 6.06226e-85 2.86656e-84 1.32905e-83 6.0399e-83 2.6895e-82 1.17303e-81 5.00929e-81 2.09366e-80 8.56104e-80 3.42337e-79 1.33815e-78 5.11075e-78 1.90633e-77 6.94124e-77 2.466e-76 8.54373e-76 2.88519e-75 9.49163e-75 3.04024e-74 9.47611e-74 2.87245e-73 8.4628e-73 2.42185e-72 6.72787e-72 1.81311e-71 4.73698e-71 1.19899e-70 2.93817e-70 6.96602e-70 1.59677e-69 3.53632e-69 7.56175e-69 1.56016e-68 3.10401e-68 5.95147e-68 1.09912e-67 1.95425e-67 3.34404e-67 5.50567e-67 8.7207e-67 1.32902e-66 1.94931e-66 2.7533e-66 3.74837e-66 4.92488e-66 6.25522e-66 7.69655e-66 9.19704e-66 1.07039e-65 1.2171e-65 1.35632e-65 1.48576e-65 1.60411e-65 1.71061e-65 1.80469e-65 1.88579e-65 1.95328e-65 2.00665e-65 2.04559e-65 2.07013e-65 2.08073e-65 2.07834e-65 2.06451e-65 2.04137e-65 2.01155e-65 1.97783e-65 1.94268e-65 1.90776e-65 1.87364e-65 1.83977e-65 1.8049e-65 1.76779e-65 1.72791e-65 1.68588e-65 1.64346e-65 1.60309e-65 1.56715e-65 1.53718e-65 1.51352e-65 1.49535e-65 1.4813e-65 1.47025e-65 1.46203e-65 1.45778e-65 1.45983e-65 1.47097e-65 1.49358e-65 1.52864e-65 1.57521e-65 1.63014e-65 1.68845e-65 1.7439e-65 1.7899e-65 1.82042e-65 1.83092e-65 1.81905e-65 1.78517e-65 1.73245e-65 1.66657e-65 1.59492e-65 1.52552e-65 1.46564e-65 1.42063e-65 1.39305e-65 1.38254e-65 1.38614e-65 1.39936e-65 1.41728e-65 1.43562e-65 1.45138e-65 1.46295e-65 1.46981e-65 1.47202e-65 1.46977e-65 1.46321e-65 1.45239e-65 1.43752e-65 1.41918e-65 1.39861e-65 1.37774e-65 1.35914e-65 1.34569e-65 1.34015e-65 1.34447e-65 1.35938e-65 1.384e-65 1.4161e-65 1.45262e-65 1.49061e-65 1.5281e-65 1.5647e-65 1.60163e-65 1.64121e-65 1.68589e-65 1.73726e-65 1.79521e-65 1.8575e-65 1.9197e-65 1.97558e-65 2.0177e-65 2.03822e-65 2.02986e-65 1.98687e-65 1.90603e-65 1.78736e-65 1.63445e-65 1.45432e-65 1.25664e-65 1.05258e-65 8.53293e-66 6.68566e-66 5.0569e-66 3.68894e-66 2.5934e-66 1.75609e-66 1.14492e-66 7.1858e-67 4.3414e-67 2.52514e-67 1.4143e-67 7.63034e-68 3.96706e-68 1.98851e-68 9.6151e-69 4.48745e-69 2.0227e-69 8.81093e-70 3.71155e-70 1.51292e-70 5.97158e-71 2.28381e-71 8.46861e-72 3.04666e-72 1.06407e-72 3.61009e-73 1.19051e-73 3.81833e-74 1.19175e-74 3.62174e-75 1.07227e-75 3.09439e-76 8.70873e-77 2.39144e-77 6.41061e-78 1.67833e-78 4.29331e-79 1.07358e-79 2.62535e-80 6.28106e-81 1.47076e-81 3.372e-82 7.57231e-83 1.66619e-83 3.59359e-84 7.59955e-85 1.57633e-85 3.20811e-86 6.40802e-87 1.25663e-87 2.41995e-88 4.57329e-89 8.23109e-90 0 
0 2.97539e-128 2.92616e-127 2.81979e-126 2.68901e-125 2.53761e-124 2.36959e-123 2.18924e-122 2.00097e-121 1.80912e-120 1.61782e-119 1.4308e-118 1.25131e-117 1.08204e-116 9.25035e-116 7.81736e-115 6.52974e-114 5.39029e-113 4.39697e-112 3.54376e-111 2.82155e-110 2.21903e-109 1.72358e-108 1.322e-107 1.00115e-106 7.48471e-106 5.52316e-105 4.02228e-104 2.89041e-103 2.04917e-102 1.43303e-101 9.88373e-101 6.72194e-100 4.50714e-99 2.97892e-98 1.94038e-97 1.24538e-96 7.87438e-96 4.90391e-95 3.00739e-94 1.81578e-93 1.07912e-92 6.31113e-92 3.63143e-91 2.0553e-90 1.14391e-89 6.25925e-89 3.36626e-88 1.7789e-87 9.23459e-87 4.70781e-86 2.35629e-85 1.15748e-84 5.57883e-84 2.63738e-83 1.22253e-82 5.55464e-82 2.47291e-81 1.07834e-80 4.60403e-80 1.92391e-79 7.86545e-79 3.14465e-78 1.22898e-77 4.69301e-77 1.75022e-76 6.37181e-76 2.26335e-75 7.84046e-75 2.64732e-74 8.70792e-74 2.78885e-73 8.69148e-73 2.6343e-72 7.7603e-72 2.22058e-71 6.16814e-71 1.66211e-70 4.34211e-70 1.09896e-69 2.69284e-69 6.38395e-69 1.46326e-68 3.24046e-68 6.92878e-68 1.42951e-67 2.84395e-67 5.45268e-67 1.00697e-66 1.79037e-66 3.06357e-66 5.04382e-66 7.98905e-66 1.2175e-65 1.78573e-65 2.52224e-65 3.43377e-65 4.51149e-65 5.73008e-65 7.05026e-65 8.42451e-65 9.80444e-65 1.11476e-64 1.2422e-64 1.36065e-64 1.46892e-64 1.56631e-64 1.65231e-64 1.72642e-64 1.78808e-64 1.83682e-64 1.87237e-64 1.89478e-64 1.90444e-64 1.90225e-64 1.8896e-64 1.86847e-64 1.84124e-64 1.81044e-64 1.77834e-64 1.74646e-64 1.7153e-64 1.68436e-64 1.6525e-64 1.6186e-64 1.58216e-64 1.54374e-64 1.50498e-64 1.46809e-64 1.43525e-64 1.40787e-64 1.38624e-64 1.36965e-64 1.35683e-64 1.34676e-64 1.33927e-64 1.33543e-64 1.33734e-64 1.34756e-64 1.36824e-64 1.4003e-64 1.44285e-64 1.49305e-64 1.54631e-64 1.59696e-64 1.63896e-64 1.66681e-64 1.67637e-64 1.66549e-64 1.6345e-64 1.58629e-64 1.52606e-64 1.46057e-64 1.39714e-64 1.34241e-64 1.30127e-64 1.27608e-64 1.26648e-64 1.26979e-64 1.2819e-64 1.2983e-64 1.31509e-64 1.32953e-64 1.34013e-64 1.34643e-64 1.34846e-64 1.34644e-64 1.34045e-64 1.33058e-64 1.31698e-64 1.30021e-64 1.28138e-64 1.26227e-64 1.24521e-64 1.23285e-64 1.22771e-64 1.23159e-64 1.24515e-64 1.26759e-64 1.29688e-64 1.33022e-64 1.36492e-64 1.39918e-64 1.43264e-64 1.46641e-64 1.50259e-64 1.54344e-64 1.5904e-64 1.64337e-64 1.70028e-64 1.75712e-64 1.80816e-64 1.84662e-64 1.86533e-64 1.85763e-64 1.81826e-64 1.74428e-64 1.6357e-64 1.4958e-64 1.33099e-64 1.15013e-64 9.634e-65 7.81035e-65 6.1198e-65 4.62913e-65 3.37706e-65 2.37426e-65 1.60779e-65 1.04829e-65 6.57963e-66 3.97539e-66 2.31239e-66 1.29522e-66 6.98829e-67 3.63349e-67 1.82143e-67 8.80786e-68 4.11102e-68 1.85317e-68 8.07318e-69 3.40109e-69 1.3865e-69 5.47315e-70 2.09341e-70 7.76347e-71 2.79331e-71 9.75705e-72 3.31073e-72 1.09194e-72 3.50267e-73 1.09339e-73 3.32333e-74 9.84075e-75 2.84034e-75 7.99508e-76 2.19585e-76 5.88736e-77 1.54162e-77 3.94435e-78 9.86509e-79 2.41291e-79 5.77397e-80 1.35231e-80 3.10108e-81 6.96543e-82 1.53299e-82 3.30706e-83 6.99522e-84 1.45132e-84 2.95438e-85 5.90266e-86 1.15781e-86 2.23021e-87 4.21576e-88 7.58944e-89 0 
0 2.75152e-127 2.70508e-126 2.60584e-125 2.48413e-124 2.34346e-123 2.18755e-122 2.02036e-121 1.84599e-120 1.66844e-119 1.49151e-118 1.31865e-117 1.15285e-116 9.96565e-116 8.51682e-115 7.1951e-114 6.00802e-113 4.958e-112 4.04304e-111 3.25746e-110 2.59276e-109 2.03845e-108 1.58282e-107 1.21366e-106 9.1882e-106 6.86705e-105 5.06581e-104 3.68809e-103 2.64945e-102 1.87778e-101 1.31279e-100 9.0517e-100 6.15428e-99 4.12531e-98 2.72577e-97 1.77498e-96 1.1389e-95 7.19912e-95 4.48214e-94 2.74798e-93 1.65871e-92 9.85507e-92 5.76214e-91 3.31468e-90 1.87554e-89 1.0436e-88 5.70894e-88 3.06954e-87 1.62171e-86 8.41657e-86 4.28978e-85 2.14657e-84 1.05422e-83 5.08001e-83 2.40104e-82 1.11274e-81 5.05477e-81 2.24991e-80 9.80906e-80 4.18722e-79 1.74941e-78 7.15072e-78 2.85839e-77 1.11692e-76 4.26437e-76 1.5901e-75 5.78801e-75 2.05567e-74 7.12003e-74 2.40374e-73 7.90567e-73 2.53161e-72 7.88885e-72 2.39077e-71 7.04215e-71 2.01489e-70 5.59627e-70 1.50789e-69 3.93889e-69 9.96838e-69 2.44244e-68 5.78998e-68 1.32704e-67 2.93867e-67 6.28322e-67 1.29627e-66 2.57881e-66 4.94419e-66 9.13047e-66 1.62335e-65 2.77773e-65 4.57317e-65 7.24352e-65 1.10388e-64 1.61907e-64 2.28683e-64 3.11326e-64 4.09034e-64 5.1951e-64 6.39189e-64 7.63758e-64 8.88826e-64 1.01054e-63 1.12599e-63 1.23327e-63 1.33129e-63 1.41943e-63 1.49724e-63 1.56426e-63 1.62e-63 1.66406e-63 1.69619e-63 1.71642e-63 1.72514e-63 1.72315e-63 1.71171e-63 1.69261e-63 1.66799e-63 1.64016e-63 1.61116e-63 1.58235e-63 1.55418e-63 1.52621e-63 1.49741e-63 1.46675e-63 1.43379e-63 1.39905e-63 1.36399e-63 1.33063e-63 1.30093e-63 1.27617e-63 1.25662e-63 1.24162e-63 1.23005e-63 1.22096e-63 1.21422e-63 1.21077e-63 1.21253e-63 1.2218e-63 1.24053e-63 1.26954e-63 1.30803e-63 1.35342e-63 1.40157e-63 1.44735e-63 1.4853e-63 1.51047e-63 1.51907e-63 1.5092e-63 1.48114e-63 1.43752e-63 1.38303e-63 1.32379e-63 1.26641e-63 1.2169e-63 1.17969e-63 1.15692e-63 1.14825e-63 1.15126e-63 1.16223e-63 1.17709e-63 1.1923e-63 1.20539e-63 1.21501e-63 1.22072e-63 1.22259e-63 1.22077e-63 1.21538e-63 1.20645e-63 1.19415e-63 1.17897e-63 1.16192e-63 1.14459e-63 1.12911e-63 1.11787e-63 1.11315e-63 1.1166e-63 1.1288e-63 1.14904e-63 1.17549e-63 1.20562e-63 1.23699e-63 1.26798e-63 1.29824e-63 1.32879e-63 1.36154e-63 1.39849e-63 1.44097e-63 1.48889e-63 1.54036e-63 1.59175e-63 1.6379e-63 1.67266e-63 1.68954e-63 1.68251e-63 1.64684e-63 1.57983e-63 1.48151e-63 1.35483e-63 1.20559e-63 1.04181e-63 8.72703e-64 7.07539e-64 5.54419e-64 4.19393e-64 3.05972e-64 2.15126e-64 1.45685e-64 9.4992e-65 5.96253e-65 3.60272e-65 2.09572e-65 1.17392e-65 6.33421e-66 3.29361e-66 1.65116e-66 7.985e-67 3.72722e-67 1.68029e-67 7.32062e-68 3.08431e-68 1.25748e-68 4.96431e-69 1.89898e-69 7.04316e-70 2.53443e-70 8.85382e-71 3.00462e-71 9.91106e-72 3.17965e-72 9.92699e-73 3.01772e-73 8.93715e-74 2.57994e-74 7.26328e-75 1.9952e-75 5.35031e-76 1.40125e-76 3.58584e-77 8.97014e-78 2.19444e-78 5.25223e-79 1.23036e-79 2.82202e-80 6.33998e-81 1.39564e-81 3.01143e-82 6.37134e-83 1.32219e-83 2.69214e-84 5.37999e-85 1.05554e-85 2.03372e-86 3.8453e-87 6.92415e-88 0 
0 2.51721e-126 2.47388e-125 2.38231e-124 2.27025e-123 2.14096e-122 1.99784e-121 1.84453e-120 1.68476e-119 1.52221e-118 1.36033e-117 1.20228e-116 1.05076e-115 9.08014e-115 7.7575e-114 6.55147e-113 5.4688e-112 4.51156e-111 3.67781e-110 2.96225e-109 2.35704e-108 1.85254e-107 1.43802e-106 1.10228e-105 8.34242e-105 6.23301e-104 4.59669e-103 3.34553e-102 2.40265e-101 1.70235e-100 1.18979e-99 8.20122e-99 5.57441e-98 3.73554e-97 2.46753e-96 1.60637e-95 1.03042e-94 6.51161e-94 4.05299e-93 2.4842e-92 1.49909e-91 8.90434e-91 5.2049e-90 2.99335e-89 1.6933e-88 9.41962e-88 5.15165e-87 2.76923e-86 1.4627e-85 7.58954e-85 3.86736e-84 1.93476e-83 9.49989e-83 4.57674e-82 2.16271e-81 1.00208e-80 4.55116e-80 2.02535e-79 8.82832e-79 3.76786e-78 1.57391e-77 6.43225e-77 2.57075e-76 1.00435e-75 3.83399e-75 1.4294e-74 5.20229e-74 1.84738e-73 6.39773e-73 2.15961e-72 7.10187e-72 2.27394e-71 7.08515e-71 2.14697e-70 6.32343e-70 1.80908e-69 5.02423e-69 1.35365e-68 3.53574e-68 8.94752e-68 2.19219e-67 5.19645e-67 1.19095e-66 2.6372e-66 5.63844e-66 1.16321e-65 2.31404e-65 4.43649e-65 8.19277e-65 1.45661e-64 2.4924e-64 4.1034e-64 6.49941e-64 9.90477e-64 1.45274e-63 2.05189e-63 2.79341e-63 3.67008e-63 4.66126e-63 5.73494e-63 6.8524e-63 7.97417e-63 9.06566e-63 1.01007e-62 1.10622e-62 1.19404e-62 1.27297e-62 1.34263e-62 1.40261e-62 1.45249e-62 1.49189e-62 1.52062e-62 1.53871e-62 1.54649e-62 1.5447e-62 1.53446e-62 1.51737e-62 1.49536e-62 1.47047e-62 1.44453e-62 1.41877e-62 1.39358e-62 1.36855e-62 1.34278e-62 1.31535e-62 1.28586e-62 1.25476e-62 1.22339e-62 1.19353e-62 1.16695e-62 1.14479e-62 1.12731e-62 1.11389e-62 1.10355e-62 1.09544e-62 1.08943e-62 1.08637e-62 1.08798e-62 1.0963e-62 1.11308e-62 1.13906e-62 1.17351e-62 1.21412e-62 1.2572e-62 1.29815e-62 1.33209e-62 1.35458e-62 1.36225e-62 1.35339e-62 1.32825e-62 1.28919e-62 1.2404e-62 1.18736e-62 1.136e-62 1.09169e-62 1.05839e-62 1.03801e-62 1.03026e-62 1.03297e-62 1.04281e-62 1.05613e-62 1.06978e-62 1.08151e-62 1.09014e-62 1.09528e-62 1.09697e-62 1.09536e-62 1.09055e-62 1.08256e-62 1.07155e-62 1.05796e-62 1.04267e-62 1.02712e-62 1.01322e-62 1.00311e-62 9.98826e-63 1.00185e-62 1.01271e-62 1.03079e-62 1.05442e-62 1.08137e-62 1.10943e-62 1.13716e-62 1.16425e-62 1.19161e-62 1.22092e-62 1.25401e-62 1.29204e-62 1.33493e-62 1.381e-62 1.42698e-62 1.46827e-62 1.49935e-62 1.51441e-62 1.50808e-62 1.47608e-62 1.41603e-62 1.32791e-62 1.2144e-62 1.08067e-62 9.33889e-63 7.82338e-63 6.34306e-63 4.97058e-63 3.7602e-63 2.74342e-63 1.92896e-63 1.30637e-63 8.51841e-64 5.34714e-64 3.23104e-64 1.87961e-64 1.05292e-64 5.68159e-65 2.95442e-65 1.4812e-65 7.16353e-66 3.34399e-66 1.50763e-66 6.56888e-67 2.76781e-67 1.12853e-67 4.45566e-68 1.70457e-68 6.32274e-69 2.27543e-69 7.94992e-70 2.69819e-70 8.90137e-71 2.85609e-71 8.91803e-72 2.71138e-72 8.0311e-73 2.31874e-73 6.52895e-74 1.79377e-74 4.81097e-75 1.26021e-75 3.22551e-76 8.07023e-77 1.97466e-77 4.72712e-78 1.10757e-78 2.5409e-79 5.70961e-80 1.25714e-80 2.71317e-81 5.74159e-82 1.19177e-82 2.42716e-83 4.85158e-84 9.52095e-85 1.83486e-85 3.47014e-86 6.25006e-87 0 
0 2.2779e-125 2.23794e-124 2.15436e-123 2.05233e-122 1.93479e-121 1.80484e-120 1.66578e-119 1.52098e-118 1.37377e-117 1.22727e-116 1.08431e-115 9.4735e-115 8.18384e-114 6.98947e-113 5.90093e-112 4.92417e-111 4.06096e-110 3.30942e-109 2.66469e-108 2.11961e-107 1.6654e-106 1.29235e-105 9.90317e-105 7.49273e-104 5.59646e-103 4.126e-102 3.00205e-101 2.15533e-100 1.52667e-99 1.06669e-98 7.35056e-98 4.99477e-97 3.34616e-96 2.2097e-95 1.43811e-94 9.2224e-94 5.82637e-93 3.6255e-92 2.22158e-91 1.34026e-90 7.95883e-90 4.65102e-89 2.67414e-88 1.51234e-87 8.41091e-87 4.59886e-86 2.4715e-85 1.30513e-84 6.7704e-84 3.44917e-83 1.72516e-82 8.46892e-82 4.07918e-81 1.92719e-80 8.92775e-80 4.0539e-79 1.80371e-78 7.86075e-78 3.3543e-77 1.40091e-76 5.72424e-76 2.2874e-75 8.93511e-75 3.41034e-74 1.27127e-73 4.62609e-73 1.64255e-72 5.68762e-72 1.91967e-71 6.31209e-71 2.02084e-70 6.29587e-70 1.90762e-69 5.61795e-69 1.60712e-68 4.46298e-68 1.20235e-67 3.14035e-67 7.94648e-67 1.94683e-66 4.61464e-66 1.05757e-65 2.34175e-65 5.00663e-65 1.03285e-64 2.05466e-64 3.93915e-64 7.27427e-64 1.2933e-63 2.21296e-63 3.64332e-63 5.7707e-63 8.79427e-63 1.28986e-62 1.82184e-62 2.48021e-62 3.25856e-62 4.13855e-62 5.09172e-62 6.08365e-62 7.07927e-62 8.04782e-62 8.96603e-62 9.81872e-62 1.05972e-61 1.12968e-61 1.19139e-61 1.2445e-61 1.28865e-61 1.32353e-61 1.34895e-61 1.36494e-61 1.37182e-61 1.37022e-61 1.36116e-61 1.34603e-61 1.32655e-61 1.30452e-61 1.28157e-61 1.25877e-61 1.23648e-61 1.21433e-61 1.19152e-61 1.16722e-61 1.14111e-61 1.11358e-61 1.08579e-61 1.05935e-61 1.03582e-61 1.0162e-61 1.00072e-61 9.8885e-62 9.79704e-62 9.72537e-62 9.67237e-62 9.64558e-62 9.66002e-62 9.73395e-62 9.88274e-62 1.01129e-61 1.0418e-61 1.07776e-61 1.1159e-61 1.15214e-61 1.18217e-61 1.20206e-61 1.20882e-61 1.20095e-61 1.17866e-61 1.14405e-61 1.10083e-61 1.05385e-61 1.00836e-61 9.69115e-62 9.39624e-62 9.21581e-62 9.14729e-62 9.17148e-62 9.2588e-62 9.37701e-62 9.49805e-62 9.6022e-62 9.67887e-62 9.72457e-62 9.73971e-62 9.72561e-62 9.68306e-62 9.6124e-62 9.51488e-62 9.39433e-62 9.25871e-62 9.1207e-62 8.99715e-62 8.90712e-62 8.86867e-62 8.89493e-62 8.99062e-62 9.15029e-62 9.35929e-62 9.59769e-62 9.84612e-62 1.00916e-61 1.03316e-61 1.0574e-61 1.08337e-61 1.11269e-61 1.14637e-61 1.18436e-61 1.22516e-61 1.26587e-61 1.30241e-61 1.32991e-61 1.34322e-61 1.33757e-61 1.30917e-61 1.25591e-61 1.17778e-61 1.07712e-61 9.5854e-62 8.28384e-62 6.93985e-62 5.62697e-62 4.40965e-62 3.33602e-62 2.43405e-62 1.71151e-62 1.15915e-62 7.55881e-63 4.74499e-63 2.86731e-63 1.66808e-63 9.3447e-64 5.04267e-64 2.62232e-64 1.31477e-64 6.35896e-65 2.96859e-65 1.33847e-65 5.8322e-66 2.45759e-66 1.00212e-66 3.95689e-67 1.51389e-67 5.616e-68 2.02129e-68 7.06274e-69 2.39735e-69 7.90982e-70 2.53825e-70 7.92661e-71 2.41028e-71 7.14023e-72 2.06183e-72 5.80643e-73 1.59552e-73 4.27994e-74 1.1213e-74 2.87046e-75 7.18319e-76 1.75794e-76 4.20911e-77 9.86393e-78 2.26335e-78 5.08697e-79 1.12028e-79 2.41832e-80 5.11873e-81 1.06272e-81 2.16482e-82 4.3282e-83 8.49584e-84 1.63769e-84 3.098e-85 5.58109e-86 0 