# vtk DataFile Version 3.0
Gray-Scott Simulation Output
ASCII
DATASET STRUCTURED_POINTS
DIMENSIONS 256 256 1
SPACING 1.0 1.0 1.0
ORIGIN 0 0 0
POINT_DATA 65536
SCALARS u double
LOOKUP_TABLE default
0 0 0 0 0 0 0 0 0 0 0 0 0 0 0 0 0 0 0 0 0 0 0 0 0 0 0 0 0 0 0 0 0 0 0 0 0 0 0 0 0 0 0 0 0 0 0 0 0 0 0 0 0 0 0 0 0 0 0 0 0 0 0 0 0 0 0 0 0 0 0 0 0 0 0 0 0 0 0 0 0 0 0 0 0 0 0 0 0 0 0 0 0 0 0 0 0 0 0 0 0 0 0 0 0 0 0 0 0 0 0 0 0 0 0 0 0 0 0 0 0 0 0 0 0 0 0 0 0 0 0 0 0 0 0 0 0 0 0 0 0 0 0 0 0 0 0 0 0 0 0 0 0 0 0 0 0 0 0 0 0 0 0 0 0 0 0 0 0 0 0 0 0 0 0 0 0 0 0 0 0 0 0 0 0 0 0 0 0 0 0 0 0 0 0 0 0 0 0 0 0 0 0 0 0 0 0 0 0 0 0 0 0 0 0 0 0 0 0 0 0 0 0 0 0 0 0 0 0 0 0 0 0 0 0 0 0 0 0 0 0 0 0 0 0 0 0 0 0 0 0 0 0 0 0 0 
0 6.93247e-82 2.7491e-81 1.01385e-80 3.6907e-80 1.33147e-79 4.76142e-79 1.68775e-78 5.92951e-78 2.06461e-77 7.12424e-77 2.43607e-76 8.25392e-76 2.77091e-75 9.21601e-75 3.03664e-74 9.91149e-74 3.20443e-73 1.02611e-72 3.25414e-72 1.02199e-71 3.17823e-71 9.78643e-71 2.9835e-70 9.00441e-70 2.69015e-69 7.95527e-69 2.32837e-68 6.7442e-68 1.9331e-67 5.48256e-67 1.53844e-66 4.27076e-66 1.17279e-65 3.18552e-65 8.55754e-65 2.27344e-64 5.97232e-64 1.55126e-63 3.98348e-63 1.0112e-62 2.53726e-62 6.29212e-62 1.54203e-61 3.73425e-61 8.93482e-61 2.11199e-60 4.93144e-60 1.13733e-59 2.59048e-59 5.8265e-59 1.29396e-58 2.83706e-58 6.14048e-58 1.31182e-57 2.76588e-57 5.75478e-57 1.18144e-56 2.39293e-56 4.78119e-56 9.42275e-56 1.83149e-55 3.5105e-55 6.63468e-55 1.23626e-54 2.27084e-54 4.11155e-54 7.33701e-54 1.29027e-53 2.23588e-53 3.81747e-53 6.4213e-53 1.06402e-52 1.73668e-52 2.79188e-52 4.42027e-52 6.89204e-52 1.0582e-51 1.59988e-51 2.38172e-51 3.49111e-51 5.03851e-51 7.15987e-51 1.00179e-50 1.38019e-50 1.87243e-50 2.50156e-50 3.29153e-50 4.26597e-50 5.44673e-50 6.85216e-50 8.49541e-50 1.03827e-49 1.2512e-49 1.4872e-49 1.74417e-49 2.0191e-49 2.30813e-49 2.60674e-49 2.90999e-49 3.21272e-49 3.50981e-49 3.79649e-49 4.06846e-49 4.32209e-49 4.55452e-49 4.76367e-49 4.94826e-49 5.10773e-49 5.24217e-49 5.3522e-49 5.43889e-49 5.50361e-49 5.54801e-49 5.57386e-49 5.58305e-49 5.57749e-49 5.5591e-49 5.52973e-49 5.49119e-49 5.44522e-49 5.39345e-49 5.33744e-49 5.27869e-49 5.21859e-49 5.1585e-49 5.09972e-49 5.04349e-49 4.99098e-49 4.94332e-49 4.90151e-49 4.86648e-49 4.83898e-49 4.81957e-49 4.80857e-49 4.80604e-49 4.81169e-49 4.82489e-49 4.84461e-49 4.86945e-49 4.89768e-49 4.9273e-49 4.95615e-49 4.98203e-49 5.0029e-49 5.01697e-49 5.02291e-49 5.01994e-49 5.00791e-49 4.98731e-49 4.95922e-49 4.92523e-49 4.88723e-49 4.84731e-49 4.80751e-49 4.76963e-49 4.73513e-49 4.705e-49 4.67973e-49 4.65929e-49 4.64324e-49 4.63078e-49 4.62094e-49 4.61268e-49 4.60501e-49 4.59715e-49 4.5886e-49 4.57918e-49 4.56907e-49 4.55878e-49 4.54912e-49 4.54113e-49 4.53598e-49 4.53489e-49 4.53903e-49 4.54944e-49 4.56697e-49 4.59217e-49 4.62533e-49 4.66636e-49 4.71486e-49 4.77004e-49 4.83073e-49 4.89535e-49 4.96189e-49 5.0279e-49 5.09044e-49 5.14611e-49 5.19108e-49 5.22119e-49 5.23208e-49 5.21936e-49 5.1789e-49 5.10707e-49 5.00106e-49 4.85913e-49 4.68085e-49 4.46727e-49 4.22095e-49 3.94593e-49 3.64755e-49 3.3322e-49 3.00692e-49 2.67903e-49 2.35573e-49 2.04364e-49 1.74854e-49 1.47508e-49 1.22663e-49 1.00525e-49 8.11736e-50 6.45751e-50 5.06017e-50 3.90539e-50 2.9684e-50 2.22181e-50 1.63755e-50 1.18841e-50 8.49212e-51 5.97498e-51 4.13934e-51 2.82361e-51 1.89658e-51 1.25443e-51 8.17047e-52 5.24083e-52 3.31079e-52 2.06001e-52 1.26255e-52 7.62259e-53 4.53386e-53 2.65695e-53 1.53423e-53 8.73032e-54 4.89605e-54 2.70634e-54 1.47464e-54 7.92139e-55 4.19542e-55 2.19108e-55 1.12848e-55 5.73236e-56 2.87227e-56 1.41977e-56 6.92403e-57 3.33196e-57 1.58229e-57 7.41603e-58 3.43083e-58 1.56679e-58 7.0634e-59 3.14206e-59 1.37502e-59 5.8149e-60 2.11821e-60 0 
0 2.74566e-81 1.08893e-80 4.01647e-80 1.46231e-79 5.27625e-79 1.88711e-78 6.69017e-78 2.35081e-77 8.1867e-77 2.82542e-76 9.66294e-76 3.27461e-75 1.09951e-74 3.65767e-74 1.20542e-73 3.93526e-73 1.27255e-72 4.07577e-72 1.29284e-71 4.06117e-71 1.26326e-70 3.89073e-70 1.18642e-69 3.58157e-69 1.0703e-68 3.16587e-68 9.26838e-68 2.68534e-67 7.69913e-67 2.1842e-66 6.13074e-66 1.70241e-65 4.67635e-65 1.27057e-64 3.41431e-64 9.07349e-64 2.38436e-63 6.19519e-63 1.59139e-62 4.04109e-62 1.01432e-61 2.51627e-61 6.16886e-61 1.49441e-60 3.57692e-60 8.45812e-60 1.97568e-59 4.55818e-59 1.0386e-58 2.33691e-58 5.19184e-58 1.13877e-57 2.4657e-57 5.26965e-57 1.1115e-56 2.31354e-56 4.7515e-56 9.62767e-56 1.92441e-55 3.7941e-55 7.37744e-55 1.41461e-54 2.67458e-54 4.98549e-54 9.1611e-54 1.65931e-53 2.96208e-53 5.2109e-53 9.03294e-53 1.54277e-52 2.59591e-52 4.3028e-52 7.02505e-52 1.12966e-51 1.78903e-51 2.79013e-51 4.28494e-51 6.47971e-51 9.64806e-51 1.41445e-50 2.04167e-50 2.90161e-50 4.06025e-50 5.59422e-50 7.58963e-50 1.01398e-49 1.33415e-49 1.72901e-49 2.20738e-49 2.77661e-49 3.44194e-49 4.20579e-49 5.06719e-49 6.02143e-49 7.05988e-49 8.17018e-49 9.3366e-49 1.05408e-48 1.17626e-48 1.29812e-48 1.4176e-48 1.53277e-48 1.64191e-48 1.74358e-48 1.83664e-48 1.92027e-48 1.99399e-48 2.05759e-48 2.11113e-48 2.15487e-48 2.18927e-48 2.21488e-48 2.23238e-48 2.24247e-48 2.24593e-48 2.24351e-48 2.23598e-48 2.22409e-48 2.20855e-48 2.19005e-48 2.16925e-48 2.14677e-48 2.1232e-48 2.0991e-48 2.07502e-48 2.05146e-48 2.02892e-48 2.00789e-48 1.98879e-48 1.97205e-48 1.95801e-48 1.947e-48 1.93923e-48 1.93484e-48 1.93384e-48 1.93612e-48 1.94143e-48 1.94936e-48 1.95934e-48 1.97069e-48 1.98259e-48 1.99419e-48 2.0046e-48 2.01299e-48 2.01866e-48 2.02106e-48 2.01989e-48 2.01508e-48 2.00683e-48 1.99557e-48 1.98195e-48 1.96672e-48 1.95073e-48 1.93478e-48 1.91961e-48 1.9058e-48 1.89375e-48 1.88365e-48 1.87548e-48 1.86908e-48 1.86412e-48 1.8602e-48 1.8569e-48 1.85384e-48 1.85069e-48 1.84726e-48 1.84347e-48 1.8394e-48 1.83525e-48 1.83135e-48 1.82812e-48 1.82604e-48 1.82558e-48 1.82722e-48 1.83138e-48 1.83841e-48 1.84852e-48 1.86182e-48 1.8783e-48 1.89779e-48 1.91997e-48 1.94438e-48 1.97039e-48 1.9972e-48 2.02382e-48 2.04909e-48 2.07165e-48 2.08995e-48 2.10232e-48 2.107e-48 2.10224e-48 2.08634e-48 2.05785e-48 2.0156e-48 1.95889e-48 1.88751e-48 1.80187e-48 1.70298e-48 1.59246e-48 1.47245e-48 1.3455e-48 1.21447e-48 1.0823e-48 9.5191e-49 8.25977e-49 7.06845e-49 5.96403e-49 4.96026e-49 4.06558e-49 3.2833e-49 2.61214e-49 2.04702e-49 1.57993e-49 1.20088e-49 8.98834e-50 6.62447e-50 4.80727e-50 3.43488e-50 2.4165e-50 1.67389e-50 1.14166e-50 7.66711e-51 5.07021e-51 3.30172e-51 2.11738e-51 1.3373e-51 8.3188e-52 5.09713e-52 3.07653e-52 1.82938e-52 1.07174e-52 6.18678e-53 3.5194e-53 1.97308e-53 1.09028e-53 5.93879e-54 3.18908e-54 1.68846e-54 8.815e-55 4.53844e-55 2.30459e-55 1.15433e-55 5.70387e-56 2.78072e-56 1.33765e-56 6.35004e-57 2.97514e-57 1.37588e-57 6.28118e-58 2.83069e-58 1.25876e-58 5.50671e-59 2.32805e-59 8.47843e-60 0 
0 1.01114e-80 4.01074e-80 1.47958e-79 5.38771e-79 1.9443e-78 6.95524e-78 2.46622e-77 8.66747e-77 3.01903e-76 1.04214e-75 3.56486e-75 1.20832e-74 4.05806e-74 1.35026e-73 4.45094e-73 1.4534e-72 4.70101e-72 1.50603e-71 4.77837e-71 1.5014e-70 4.67145e-70 1.43916e-69 4.38971e-69 1.32555e-68 3.96234e-68 1.17239e-67 3.43331e-67 9.95047e-67 2.8538e-66 8.0987e-66 2.27395e-65 6.31653e-65 1.73568e-64 4.71754e-64 1.26816e-63 3.37135e-63 8.86263e-63 2.30361e-62 5.91968e-62 1.50379e-61 3.77603e-61 9.37116e-61 2.29836e-60 5.57011e-60 1.33378e-59 3.15524e-59 7.37331e-59 1.70187e-58 3.87948e-58 8.73288e-58 1.94102e-57 4.25932e-57 9.22656e-57 1.97278e-56 4.16298e-56 8.669e-56 1.78123e-55 3.61085e-55 7.22077e-55 1.42427e-54 2.77068e-54 5.31512e-54 1.00536e-53 1.87485e-53 3.44664e-53 6.2454e-53 1.11535e-52 1.96294e-52 3.40405e-52 5.81618e-52 9.79012e-52 1.62333e-51 2.65128e-51 4.26479e-51 6.75617e-51 1.05398e-50 1.61909e-50 2.44899e-50 3.64727e-50 5.34809e-50 7.72095e-50 1.09745e-49 1.53583e-49 2.11622e-49 2.87118e-49 3.83593e-49 5.04699e-49 6.5403e-49 8.34892e-49 1.05004e-48 1.30141e-48 1.58988e-48 1.91501e-48 2.27498e-48 2.66644e-48 3.08468e-48 3.52369e-48 3.9765e-48 4.43548e-48 4.89277e-48 5.34061e-48 5.77178e-48 6.17985e-48 6.55947e-48 6.90644e-48 7.21782e-48 7.49187e-48 7.72792e-48 7.92627e-48 8.08803e-48 8.2149e-48 8.30908e-48 8.37307e-48 8.4096e-48 8.42149e-48 8.41161e-48 8.38281e-48 8.33785e-48 8.27941e-48 8.21003e-48 8.13215e-48 8.04806e-48 7.95996e-48 7.86993e-48 7.77997e-48 7.69201e-48 7.60788e-48 7.52936e-48 7.45809e-48 7.3956e-48 7.34325e-48 7.30217e-48 7.27321e-48 7.25686e-48 7.2532e-48 7.26181e-48 7.28173e-48 7.31144e-48 7.34884e-48 7.39133e-48 7.43593e-48 7.47937e-48 7.51837e-48 7.54984e-48 7.57111e-48 7.58018e-48 7.57587e-48 7.55796e-48 7.52718e-48 7.48517e-48 7.43431e-48 7.37746e-48 7.31775e-48 7.25824e-48 7.20165e-48 7.15016e-48 7.10526e-48 7.06766e-48 7.0373e-48 7.01351e-48 6.99509e-48 6.98056e-48 6.96833e-48 6.95693e-48 6.9452e-48 6.93236e-48 6.91816e-48 6.90287e-48 6.88729e-48 6.87263e-48 6.86046e-48 6.85255e-48 6.85074e-48 6.85681e-48 6.87232e-48 6.89853e-48 6.93632e-48 6.9861e-48 7.04777e-48 7.12074e-48 7.20384e-48 7.29536e-48 7.39297e-48 7.49369e-48 7.59387e-48 7.68914e-48 7.77442e-48 7.84397e-48 7.89152e-48 7.91047e-48 7.89415e-48 7.83626e-48 7.73119e-48 7.57456e-48 7.36358e-48 7.09744e-48 6.77756e-48 6.40767e-48 5.99376e-48 5.54382e-48 5.06745e-48 4.57533e-48 4.07859e-48 3.58818e-48 3.11426e-48 2.66569e-48 2.24965e-48 1.87136e-48 1.53406e-48 1.23904e-48 9.85857e-49 7.72627e-49 5.96352e-49 4.53285e-49 3.39269e-49 2.50032e-49 1.81432e-49 1.29624e-49 9.11816e-50 6.31514e-50 4.30646e-50 2.89155e-50 1.91176e-50 1.24465e-50 7.97984e-51 5.03856e-51 3.13338e-51 1.91932e-51 1.15809e-51 6.88401e-52 4.03163e-52 2.32649e-52 1.32296e-52 7.41415e-53 4.09534e-53 2.22987e-53 1.19695e-53 6.33475e-54 3.30586e-54 1.70135e-54 8.63578e-55 4.32375e-55 2.1356e-55 1.04071e-55 5.0042e-56 2.3746e-56 1.11209e-56 5.14089e-57 2.34596e-57 1.05681e-57 4.69759e-58 2.05426e-58 8.68157e-59 3.16084e-59 0 
0 3.67544e-80 1.45808e-79 5.37981e-79 1.95934e-78 7.07207e-78 2.53032e-77 8.9738e-77 3.15444e-76 1.09897e-75 3.79433e-75 1.2982e-74 4.40127e-74 1.47847e-73 4.92053e-73 1.62236e-72 5.29894e-72 1.71436e-71 5.49358e-71 1.74348e-70 5.47963e-70 1.7054e-69 5.25542e-69 1.60347e-68 4.84337e-68 1.44823e-67 4.28638e-67 1.25566e-66 3.64035e-66 1.0444e-65 2.96487e-65 8.32762e-65 2.31405e-64 6.36094e-64 1.72952e-63 4.65101e-63 1.23692e-62 3.25289e-62 8.45837e-62 2.17446e-61 5.5261e-61 1.38818e-60 3.44656e-60 8.45661e-60 2.05036e-59 4.9118e-59 1.16247e-58 2.71773e-58 6.27576e-58 1.43124e-57 3.22329e-57 7.1676e-57 1.57358e-56 3.41031e-56 7.29521e-56 1.54018e-55 3.20881e-55 6.59635e-55 1.33783e-54 2.67659e-54 5.282e-54 1.02801e-53 1.97301e-53 3.73373e-53 6.96607e-53 1.28119e-52 2.3226e-52 4.14972e-52 7.30634e-52 1.26757e-51 2.16666e-51 3.64849e-51 6.05197e-51 9.88789e-51 1.5911e-50 2.5214e-50 3.93466e-50 6.04598e-50 9.14738e-50 1.36263e-49 1.99847e-49 2.88567e-49 4.10226e-49 5.74158e-49 7.91196e-49 1.0735e-48 1.43422e-48 1.88696e-48 2.44511e-48 3.12092e-48 3.92457e-48 4.86316e-48 5.93973e-48 7.15249e-48 8.49429e-48 9.95249e-48 1.15092e-47 1.31417e-47 1.4824e-47 1.65273e-47 1.82225e-47 1.98806e-47 2.14749e-47 2.29817e-47 2.43814e-47 2.56588e-47 2.68034e-47 2.7809e-47 2.86738e-47 2.9399e-47 2.99892e-47 3.04508e-47 3.07923e-47 3.1023e-47 3.1153e-47 3.11928e-47 3.11531e-47 3.10441e-47 3.08762e-47 3.0659e-47 3.04019e-47 3.01138e-47 2.98031e-47 2.94778e-47 2.91456e-47 2.88137e-47 2.84893e-47 2.81792e-47 2.78897e-47 2.7627e-47 2.73966e-47 2.72037e-47 2.70524e-47 2.69458e-47 2.68857e-47 2.68725e-47 2.69045e-47 2.69783e-47 2.70883e-47 2.72267e-47 2.73839e-47 2.7549e-47 2.77097e-47 2.78541e-47 2.79707e-47 2.80496e-47 2.80834e-47 2.80678e-47 2.80019e-47 2.78885e-47 2.77336e-47 2.75461e-47 2.73364e-47 2.71163e-47 2.68969e-47 2.66884e-47 2.64989e-47 2.63336e-47 2.61954e-47 2.60839e-47 2.59967e-47 2.59292e-47 2.5876e-47 2.58312e-47 2.57893e-47 2.57461e-47 2.56986e-47 2.56461e-47 2.55894e-47 2.55315e-47 2.5477e-47 2.54317e-47 2.54021e-47 2.53951e-47 2.54172e-47 2.54743e-47 2.5571e-47 2.57105e-47 2.58944e-47 2.61224e-47 2.63923e-47 2.66999e-47 2.70389e-47 2.74008e-47 2.77747e-47 2.81472e-47 2.85022e-47 2.8821e-47 2.90823e-47 2.92631e-47 2.93388e-47 2.92846e-47 2.9077e-47 2.86949e-47 2.81218e-47 2.73471e-47 2.63674e-47 2.51875e-47 2.38211e-47 2.229e-47 2.06237e-47 1.88578e-47 1.70319e-47 1.51874e-47 1.33651e-47 1.1603e-47 9.93413e-48 8.38549e-48 6.97676e-48 5.72017e-48 4.62072e-48 3.67692e-48 2.88185e-48 2.22445e-48 1.69082e-48 1.2655e-48 9.32602e-49 6.76676e-49 4.83401e-49 3.39997e-49 2.35442e-49 1.60525e-49 1.07762e-49 7.1231e-50 4.63633e-50 2.97172e-50 1.87584e-50 1.16619e-50 7.14109e-51 4.30741e-51 2.55955e-51 1.49846e-51 8.64377e-52 4.9134e-52 2.7525e-52 1.51978e-52 8.27169e-53 4.43825e-53 2.34791e-53 1.22477e-53 6.30052e-54 3.19667e-54 1.59982e-54 7.89844e-55 3.84734e-55 1.84918e-55 8.77095e-56 4.10593e-56 1.89724e-56 8.65403e-57 3.89682e-57 1.73144e-57 7.56849e-58 3.19735e-58 1.16378e-58 0 
0 1.32399e-79 5.25317e-79 1.93856e-78 7.06156e-78 2.54928e-77 9.12281e-77 3.23605e-76 1.13775e-75 3.96462e-75 1.36913e-74 4.68541e-74 1.58884e-73 5.33845e-73 1.77713e-72 5.86087e-72 1.91475e-71 6.19637e-71 1.98612e-70 6.305e-70 1.98217e-69 6.17077e-69 1.90216e-68 5.80537e-68 1.75409e-67 5.24658e-67 1.55335e-66 4.5519e-66 1.32011e-65 3.78863e-65 1.0759e-64 3.02304e-64 8.40337e-64 2.31081e-63 6.2854e-63 1.69091e-62 4.4987e-62 1.18356e-61 3.07881e-61 7.91822e-61 2.01316e-60 5.0593e-60 1.25667e-59 3.08476e-59 7.48255e-59 1.79332e-58 4.24617e-58 9.9317e-58 2.2945e-57 5.23529e-57 1.1796e-56 2.62433e-56 5.76427e-56 1.24986e-55 2.67497e-55 5.65025e-55 1.17776e-54 2.42232e-54 4.91522e-54 9.83876e-54 1.94255e-53 3.78255e-53 7.26321e-53 1.37516e-52 2.56688e-52 4.72322e-52 8.56645e-52 1.53124e-51 2.69724e-51 4.68147e-51 8.00544e-51 1.34861e-50 2.23791e-50 3.65774e-50 5.88793e-50 9.33372e-50 1.457e-49 2.23948e-49 3.38918e-49 5.0499e-49 7.4079e-49 1.06985e-48 1.52113e-48 2.12925e-48 2.93437e-48 3.98156e-48 5.31949e-48 6.99849e-48 9.06791e-48 1.15729e-47 1.45507e-47 1.8027e-47 2.20124e-47 2.64993e-47 3.14604e-47 3.68479e-47 4.25943e-47 4.86152e-47 5.48131e-47 6.10819e-47 6.73129e-47 7.33998e-47 7.92444e-47 8.47603e-47 8.98762e-47 9.45376e-47 9.87073e-47 1.02364e-46 1.05503e-46 1.0813e-46 1.10263e-46 1.11926e-46 1.13152e-46 1.13975e-46 1.14432e-46 1.14562e-46 1.14403e-46 1.13995e-46 1.13372e-46 1.12572e-46 1.11627e-46 1.1057e-46 1.09432e-46 1.08241e-46 1.07025e-46 1.05811e-46 1.04625e-46 1.03491e-46 1.02433e-46 1.01473e-46 1.00631e-46 9.99264e-47 9.93737e-47 9.89846e-47 9.87657e-47 9.87182e-47 9.88365e-47 9.91078e-47 9.95115e-47 1.00019e-46 1.00596e-46 1.01202e-46 1.01792e-46 1.02322e-46 1.0275e-46 1.0304e-46 1.03165e-46 1.03109e-46 1.02869e-46 1.02455e-46 1.01889e-46 1.01203e-46 1.00436e-46 9.96316e-47 9.88299e-47 9.80683e-47 9.73762e-47 9.67735e-47 9.62696e-47 9.58638e-47 9.55466e-47 9.53015e-47 9.51084e-47 9.49456e-47 9.47932e-47 9.46353e-47 9.44615e-47 9.42685e-47 9.40601e-47 9.38471e-47 9.36463e-47 9.3479e-47 9.33693e-47 9.33423e-47 9.34221e-47 9.36302e-47 9.39837e-47 9.44945e-47 9.51683e-47 9.60042e-47 9.69944e-47 9.81236e-47 9.93691e-47 1.007e-46 1.02076e-46 1.0345e-46 1.04762e-46 1.05945e-46 1.06919e-46 1.07602e-46 1.07901e-46 1.07727e-46 1.06991e-46 1.05615e-46 1.03538e-46 1.00719e-46 9.71446e-47 9.28308e-47 8.78264e-47 8.22111e-47 7.60928e-47 6.96017e-47 6.28837e-47 5.60916e-47 4.93761e-47 4.2878e-47 3.67202e-47 3.1003e-47 2.57997e-47 2.11565e-47 1.70925e-47 1.36027e-47 1.06622e-47 8.23035e-48 6.25602e-48 4.68227e-48 3.45039e-48 2.50334e-48 1.78814e-48 1.2575e-48 8.70658e-49 5.93507e-49 3.98342e-49 2.63244e-49 1.71298e-49 1.09765e-49 6.92663e-50 4.30487e-50 2.63518e-50 1.58895e-50 9.43842e-51 5.52355e-51 3.18499e-51 1.80973e-51 1.0134e-51 5.59315e-52 3.04288e-52 1.63198e-52 8.62973e-53 4.49964e-53 2.31371e-53 1.17338e-53 5.86968e-54 2.89661e-54 1.41031e-54 6.77547e-55 3.21227e-55 1.50308e-55 6.94223e-56 3.16522e-56 1.42464e-56 6.32723e-57 2.76461e-57 1.16747e-57 4.2481e-58 0 
0 4.72756e-79 1.87603e-78 6.92429e-78 2.52276e-77 9.10909e-77 3.2604e-76 1.15677e-75 4.06789e-75 1.4178e-74 4.89726e-74 1.67631e-73 5.68577e-73 1.91085e-72 6.36266e-72 2.0989e-71 6.85888e-71 2.22021e-70 7.11838e-70 2.26038e-69 7.10823e-69 2.21354e-68 6.82538e-68 2.08374e-67 6.29798e-67 1.88437e-66 5.58088e-66 1.63596e-65 4.74614e-65 1.36259e-64 3.87092e-64 1.08804e-63 3.02563e-63 8.32325e-63 2.26481e-62 6.09528e-62 1.62232e-61 4.26988e-61 1.1112e-60 2.85906e-60 7.27213e-60 1.82838e-59 4.5435e-59 1.11581e-58 2.70781e-58 6.49274e-58 1.53806e-57 3.59922e-57 8.31922e-57 1.8991e-56 4.28111e-56 9.52922e-56 2.09412e-55 4.54295e-55 9.72786e-55 2.05583e-54 4.28744e-54 8.82259e-54 1.79115e-53 3.58717e-53 7.08606e-53 1.38051e-52 2.65218e-52 5.02395e-52 9.38242e-52 1.72727e-51 3.13425e-51 5.60509e-51 9.8778e-51 1.71522e-50 2.93437e-50 4.94539e-50 8.20985e-50 1.34239e-49 2.16167e-49 3.42796e-49 5.35285e-49 8.23013e-49 1.24588e-48 1.85684e-48 2.72449e-48 3.93548e-48 5.59641e-48 7.83472e-48 1.07982e-47 1.46524e-47 1.95763e-47 2.57543e-47 3.33673e-47 4.25799e-47 5.35275e-47 6.63021e-47 8.09397e-47 9.74095e-47 1.15607e-46 1.35353e-46 1.56397e-46 1.78424e-46 2.01074e-46 2.23957e-46 2.46672e-46 2.68833e-46 2.9008e-46 3.101e-46 3.28639e-46 3.45502e-46 3.60559e-46 3.7374e-46 3.8503e-46 3.94458e-46 4.02093e-46 4.0803e-46 4.12386e-46 4.15289e-46 4.16876e-46 4.17287e-46 4.16663e-46 4.15139e-46 4.1285e-46 4.09923e-46 4.06478e-46 4.02633e-46 3.98496e-46 3.94172e-46 3.89761e-46 3.85359e-46 3.81057e-46 3.76946e-46 3.7311e-46 3.6963e-46 3.6658e-46 3.64027e-46 3.62025e-46 3.60616e-46 3.59826e-46 3.59657e-46 3.6009e-46 3.61079e-46 3.62549e-46 3.64397e-46 3.66497e-46 3.687e-46 3.70848e-46 3.72778e-46 3.74338e-46 3.75397e-46 3.75856e-46 3.75656e-46 3.74788e-46 3.73287e-46 3.71235e-46 3.68748e-46 3.65969e-46 3.63051e-46 3.60146e-46 3.57386e-46 3.54881e-46 3.527e-46 3.50879e-46 3.49414e-46 3.48271e-46 3.47388e-46 3.46693e-46 3.46107e-46 3.45557e-46 3.44985e-46 3.44354e-46 3.43651e-46 3.42891e-46 3.42113e-46 3.41379e-46 3.40766e-46 3.40363e-46 3.4026e-46 3.40546e-46 3.41299e-46 3.42581e-46 3.44435e-46 3.46884e-46 3.49924e-46 3.53526e-46 3.57638e-46 3.62177e-46 3.67031e-46 3.7206e-46 3.77086e-46 3.81898e-46 3.8625e-46 3.89859e-46 3.92415e-46 3.9359e-46 3.93049e-46 3.90471e-46 3.85569e-46 3.78111e-46 3.67946e-46 3.55016e-46 3.39379e-46 3.21206e-46 3.00784e-46 2.78504e-46 2.54839e-46 2.30324e-46 2.05515e-46 1.80967e-46 1.57197e-46 1.34658e-46 1.13719e-46 9.4653e-47 7.76318e-47 6.27284e-47 4.99269e-47 3.91372e-47 3.02121e-47 2.29651e-47 1.71877e-47 1.26651e-47 9.18807e-48 6.56231e-48 4.61428e-48 3.19426e-48 2.17702e-48 1.46083e-48 9.65146e-49 6.27871e-49 4.02214e-49 2.53736e-49 1.57644e-49 9.64665e-50 5.8146e-50 3.45259e-50 2.01973e-50 1.16415e-50 6.61207e-51 3.70101e-51 2.04177e-51 1.11031e-51 5.95228e-52 3.14607e-52 1.63965e-52 8.42719e-53 4.27181e-53 2.13593e-53 1.05357e-53 5.12726e-54 2.46211e-54 1.16675e-54 5.45693e-55 2.51922e-55 1.14808e-55 5.16508e-56 2.29293e-56 1.00143e-56 4.22726e-57 1.53771e-57 0 
0 1.6732e-78 6.64077e-78 2.4515e-77 8.93337e-77 3.22626e-76 1.15501e-75 4.09872e-75 1.44167e-74 5.02582e-74 1.73637e-73 5.94492e-73 2.0169e-72 6.78e-72 2.25814e-71 7.45102e-71 2.43553e-70 7.88595e-70 2.52908e-69 8.03319e-69 2.52695e-68 7.87144e-68 2.42788e-67 7.41449e-67 2.24172e-66 6.70951e-66 1.98781e-65 5.82902e-65 1.69167e-64 4.85849e-64 1.38073e-63 3.88243e-63 1.08005e-62 2.9723e-62 8.09107e-62 2.17844e-61 5.80055e-61 1.52734e-60 3.97648e-60 1.02358e-59 2.60468e-59 6.55172e-59 1.62885e-58 4.00206e-58 9.71669e-58 2.33098e-57 5.52455e-57 1.29344e-56 2.99114e-56 6.8316e-56 1.54082e-55 3.43144e-55 7.54477e-55 1.63761e-54 3.50847e-54 7.41851e-54 1.54795e-53 3.18703e-53 6.47369e-53 1.29719e-52 2.56381e-52 4.99746e-52 9.60598e-52 1.82058e-51 3.40176e-51 6.26571e-51 1.13752e-50 2.03528e-50 3.58848e-50 6.23412e-50 1.06701e-49 1.79907e-49 2.98791e-49 4.88751e-49 7.87353e-49 1.24904e-48 1.95108e-48 3.00079e-48 4.54395e-48 6.77402e-48 9.94166e-48 1.43635e-47 2.04288e-47 2.86032e-47 3.94259e-47 5.35012e-47 7.14806e-47 9.40362e-47 1.21824e-46 1.5544e-46 1.95372e-46 2.41947e-46 2.95285e-46 3.55262e-46 4.21483e-46 4.9328e-46 5.69723e-46 6.49659e-46 7.31762e-46 8.14606e-46 8.96735e-46 9.76741e-46 1.05333e-45 1.12538e-45 1.19198e-45 1.25246e-45 1.30635e-45 1.35343e-45 1.39366e-45 1.42719e-45 1.45426e-45 1.47524e-45 1.49056e-45 1.50069e-45 1.50613e-45 1.50738e-45 1.50494e-45 1.49931e-45 1.49095e-45 1.48033e-45 1.46788e-45 1.454e-45 1.43909e-45 1.42352e-45 1.40765e-45 1.39181e-45 1.37635e-45 1.36156e-45 1.34778e-45 1.33527e-45 1.32431e-45 1.31513e-45 1.30794e-45 1.30289e-45 1.30005e-45 1.29946e-45 1.30103e-45 1.30461e-45 1.30991e-45 1.31659e-45 1.32416e-45 1.33212e-45 1.33987e-45 1.34684e-45 1.35248e-45 1.35631e-45 1.35798e-45 1.35728e-45 1.35417e-45 1.34877e-45 1.3414e-45 1.33245e-45 1.32246e-45 1.31197e-45 1.30153e-45 1.29161e-45 1.28262e-45 1.2748e-45 1.26827e-45 1.26303e-45 1.25894e-45 1.25579e-45 1.25331e-45 1.25122e-45 1.24925e-45 1.24719e-45 1.24492e-45 1.24238e-45 1.23963e-45 1.23682e-45 1.23416e-45 1.23193e-45 1.23046e-45 1.23007e-45 1.23109e-45 1.23379e-45 1.2384e-45 1.24507e-45 1.2539e-45 1.26486e-45 1.27787e-45 1.29271e-45 1.30912e-45 1.32669e-45 1.34491e-45 1.36315e-45 1.38067e-45 1.39656e-45 1.40983e-45 1.41934e-45 1.4239e-45 1.42231e-45 1.4134e-45 1.3961e-45 1.36958e-45 1.33325e-45 1.28689e-45 1.2307e-45 1.16526e-45 1.09161e-45 1.01115e-45 9.25593e-46 8.36861e-46 7.46985e-46 6.57978e-46 5.71727e-46 4.89887e-46 4.13814e-46 3.4451e-46 2.8261e-46 2.28391e-46 1.81802e-46 1.42525e-46 1.10028e-46 8.36367e-47 6.25948e-47 4.61218e-47 3.34569e-47 2.38928e-47 1.67978e-47 1.16263e-47 7.9222e-48 5.31473e-48 3.51047e-48 2.28308e-48 1.4621e-48 9.22066e-49 5.72676e-49 3.5031e-49 2.11073e-49 1.25282e-49 7.32592e-50 4.22082e-50 2.39628e-50 1.3407e-50 7.39305e-51 4.0185e-51 2.15328e-51 1.13759e-51 5.92601e-52 3.0443e-52 1.54244e-52 7.70862e-53 3.80051e-53 1.84866e-53 8.87299e-54 4.20275e-54 1.9647e-54 9.06581e-55 4.12961e-55 1.85699e-55 8.2399e-56 3.59714e-56 1.5178e-56 5.51941e-57 0 
0 5.86934e-78 2.32986e-77 8.6025e-77 3.1354e-76 1.13257e-75 4.05545e-75 1.43945e-74 5.06418e-74 1.76583e-73 6.10221e-73 2.08975e-72 7.09153e-72 2.38449e-71 7.9438e-71 2.62186e-70 8.57249e-70 2.77645e-69 8.90683e-69 2.82994e-68 8.90466e-68 2.77466e-67 8.56095e-67 2.61528e-66 7.90975e-66 2.36821e-65 7.0187e-65 2.05889e-64 5.97742e-64 1.71735e-63 4.88241e-63 1.3734e-62 3.82219e-62 1.05229e-61 2.86569e-61 7.71885e-61 2.05619e-60 5.4165e-60 1.41084e-59 3.63325e-59 9.24973e-59 2.32774e-58 5.78984e-58 1.42325e-57 3.45723e-57 8.29782e-57 1.96762e-56 4.60905e-56 1.06642e-55 2.43691e-55 5.49918e-55 1.22533e-54 2.6956e-54 5.85401e-54 1.25486e-53 2.65481e-53 5.54257e-53 1.14177e-52 2.32051e-52 4.65236e-52 9.20014e-52 1.7943e-51 3.45083e-51 6.54374e-51 1.22335e-50 2.25448e-50 4.09509e-50 7.33075e-50 1.29316e-49 2.24766e-49 3.84885e-49 6.49246e-49 1.07875e-48 1.76534e-48 2.84502e-48 4.51501e-48 7.05527e-48 1.08548e-47 1.64418e-47 2.45179e-47 3.59917e-47 5.20109e-47 7.39869e-47 1.03606e-46 1.42822e-46 1.93821e-46 2.58959e-46 3.40662e-46 4.41294e-46 5.62995e-46 7.07503e-46 8.75971e-46 1.06879e-45 1.28547e-45 1.52453e-45 1.78349e-45 2.05894e-45 2.34667e-45 2.64186e-45 2.93932e-45 3.23379e-45 3.52021e-45 3.79396e-45 4.05103e-45 4.28823e-45 4.50316e-45 4.69432e-45 4.86095e-45 5.00303e-45 5.1211e-45 5.21617e-45 5.28958e-45 5.34289e-45 5.37784e-45 5.3962e-45 5.39978e-45 5.39036e-45 5.36969e-45 5.33944e-45 5.30122e-45 5.25655e-45 5.20688e-45 5.1536e-45 5.098e-45 5.04135e-45 4.98486e-45 4.9297e-45 4.87701e-45 4.82786e-45 4.78328e-45 4.74422e-45 4.71153e-45 4.68592e-45 4.66793e-45 4.65787e-45 4.6558e-45 4.66147e-45 4.67429e-45 4.69329e-45 4.71717e-45 4.74429e-45 4.77276e-45 4.80052e-45 4.82548e-45 4.84569e-45 4.85944e-45 4.86547e-45 4.86302e-45 4.85196e-45 4.83275e-45 4.80645e-45 4.77456e-45 4.73893e-45 4.70153e-45 4.66431e-45 4.629e-45 4.59698e-45 4.56915e-45 4.54596e-45 4.52736e-45 4.51287e-45 4.50173e-45 4.49296e-45 4.48555e-45 4.47857e-45 4.47125e-45 4.46312e-45 4.45404e-45 4.44418e-45 4.43407e-45 4.42449e-45 4.41647e-45 4.41115e-45 4.40971e-45 4.41328e-45 4.42288e-45 4.43932e-45 4.46318e-45 4.49472e-45 4.53393e-45 4.58047e-45 4.63366e-45 4.69248e-45 4.75554e-45 4.82104e-45 4.88675e-45 4.95e-45 5.00761e-45 5.05598e-45 5.0911e-45 5.1087e-45 5.1044e-45 5.07398e-45 5.01359e-45 4.92014e-45 4.7915e-45 4.62679e-45 4.4266e-45 4.19301e-45 3.92965e-45 3.64152e-45 3.33474e-45 3.01623e-45 2.69329e-45 2.37319e-45 2.06276e-45 1.76801e-45 1.49385e-45 1.24395e-45 1.02064e-45 8.24955e-46 6.56758e-46 5.14914e-46 3.97529e-46 3.02182e-46 2.26153e-46 1.66627e-46 1.20861e-46 8.6301e-47 6.06643e-47 4.19801e-47 2.85994e-47 1.91817e-47 1.26665e-47 8.23545e-48 5.27238e-48 3.32389e-48 2.06366e-48 1.26189e-48 7.60032e-49 4.50932e-49 2.63574e-49 1.51792e-49 8.61384e-50 4.81718e-50 2.65512e-50 1.44251e-50 7.7259e-51 4.07964e-51 2.12417e-51 1.09069e-51 5.52339e-52 2.75904e-52 1.35959e-52 6.61009e-53 3.17106e-53 1.50125e-53 7.01457e-54 3.23518e-54 1.47295e-54 6.62032e-55 2.93619e-55 1.2812e-55 5.40369e-56 1.96438e-56 0 
0 2.04048e-77 8.10111e-77 2.99174e-76 1.09063e-75 3.9404e-75 1.41126e-74 5.01027e-74 1.76308e-73 6.14913e-73 2.12547e-72 7.28064e-72 2.4713e-71 8.31178e-71 2.76977e-70 9.14417e-70 2.99064e-69 9.68885e-69 3.10911e-68 9.88147e-68 3.11026e-67 9.69459e-67 2.99215e-66 9.14376e-66 2.76643e-65 8.28572e-65 2.45653e-64 7.20873e-64 2.09364e-63 6.0175e-63 1.71144e-62 4.81615e-62 1.34088e-61 3.69315e-61 1.00618e-60 2.71136e-60 7.22588e-60 1.90433e-59 4.9625e-59 1.27856e-58 3.25659e-58 8.19932e-58 2.04044e-57 5.01826e-57 1.21961e-56 2.92873e-56 6.94837e-56 1.62848e-55 3.76989e-55 8.61936e-55 1.94612e-54 4.33874e-54 9.55007e-54 2.07514e-53 4.45076e-53 9.4214e-53 1.96807e-52 4.05652e-52 8.24908e-52 1.65479e-51 3.27423e-51 6.38935e-51 1.2295e-50 2.33278e-50 4.36354e-50 8.04587e-50 1.46226e-49 2.61902e-49 4.62242e-49 8.03834e-49 1.37715e-48 2.32417e-48 3.86351e-48 6.32527e-48 1.01981e-47 1.61908e-47 2.53096e-47 3.89531e-47 5.90217e-47 8.80381e-47 1.29271e-46 1.86848e-46 2.65845e-46 3.72324e-46 5.13305e-46 6.96639e-46 9.30775e-46 1.2244e-45 1.58596e-45 2.02308e-45 2.5419e-45 3.14645e-45 3.83798e-45 4.61453e-45 5.4706e-45 6.39713e-45 7.38166e-45 8.40891e-45 9.46145e-45 1.05207e-44 1.15677e-44 1.25844e-44 1.35544e-44 1.44637e-44 1.5301e-44 1.60582e-44 1.673e-44 1.73144e-44 1.78113e-44 1.82232e-44 1.85537e-44 1.88079e-44 1.89914e-44 1.91105e-44 1.91716e-44 1.91809e-44 1.91449e-44 1.90696e-44 1.8961e-44 1.88245e-44 1.86656e-44 1.84893e-44 1.83004e-44 1.81036e-44 1.79031e-44 1.77033e-44 1.75083e-44 1.7322e-44 1.71483e-44 1.69908e-44 1.68527e-44 1.67373e-44 1.66468e-44 1.65834e-44 1.65479e-44 1.65408e-44 1.65611e-44 1.66066e-44 1.66741e-44 1.67589e-44 1.68551e-44 1.69562e-44 1.70547e-44 1.71434e-44 1.72152e-44 1.72642e-44 1.72857e-44 1.72773e-44 1.72383e-44 1.71705e-44 1.70775e-44 1.69648e-44 1.68388e-44 1.67066e-44 1.6575e-44 1.64503e-44 1.63373e-44 1.62392e-44 1.61575e-44 1.6092e-44 1.60411e-44 1.6002e-44 1.59713e-44 1.59453e-44 1.59207e-44 1.58949e-44 1.58661e-44 1.58338e-44 1.57988e-44 1.57628e-44 1.57286e-44 1.57e-44 1.56809e-44 1.56755e-44 1.5688e-44 1.57219e-44 1.578e-44 1.58645e-44 1.59763e-44 1.61154e-44 1.62806e-44 1.64696e-44 1.66787e-44 1.69032e-44 1.71368e-44 1.73716e-44 1.75982e-44 1.78054e-44 1.79805e-44 1.81093e-44 1.81765e-44 1.81665e-44 1.80641e-44 1.78556e-44 1.75296e-44 1.70783e-44 1.64983e-44 1.57914e-44 1.49647e-44 1.4031e-44 1.30079e-44 1.19171e-44 1.07833e-44 9.63249e-45 8.49077e-45 7.38259e-45 6.32959e-45 5.34954e-45 4.45569e-45 3.65656e-45 2.956e-45 2.35361e-45 1.84545e-45 1.42482e-45 1.08309e-45 8.10569e-46 5.97185e-46 4.33121e-46 3.09232e-46 2.17336e-46 1.5037e-46 1.02418e-46 6.86753e-47 4.53367e-47 2.94679e-47 1.88594e-47 1.18855e-47 7.37647e-48 4.50881e-48 2.71454e-48 1.60988e-48 9.40578e-49 5.41435e-49 3.0711e-49 1.71666e-49 9.45732e-50 5.13561e-50 2.7492e-50 1.45098e-50 7.55107e-51 3.87524e-51 1.96147e-51 9.79292e-52 4.82324e-52 2.34377e-52 1.1238e-52 5.31759e-53 2.48337e-53 1.14477e-53 5.20942e-54 2.34025e-54 1.03742e-54 4.52459e-55 1.90748e-55 6.9318e-56 0 