# vtk DataFile Version 3.0
Gray-Scott Simulation Output
ASCII
DATASET STRUCTURED_POINTS
DIMENSIONS 256 256 1
SPACING 1.0 1.0 1.0
ORIGIN 0 0 0
POINT_DATA 65536
SCALARS u double
LOOKUP_TABLE default
0 0 0 0 0 0 0 0 0 0 0 0 0 0 0 0 0 0 0 0 0 0 0 0 0 0 0 0 0 0 0 0 0 0 0 0 0 0 0 0 0 0 0 0 0 0 0 0 0 0 0 0 0 0 0 0 0 0 0 0 0 0 0 0 0 0 0 0 0 0 0 0 0 0 0 0 0 0 0 0 0 0 0 0 0 0 0 0 0 0 0 0 0 0 0 0 0 0 0 0 0 0 0 0 0 0 0 0 0 0 0 0 0 0 0 0 0 0 0 0 0 0 0 0 0 0 0 0 0 0 0 0 0 0 0 0 0 0 0 0 0 0 0 0 0 0 0 0 0 0 0 0 0 0 0 0 0 0 0 0 0 0 0 0 0 0 0 0 0 0 0 0 0 0 0 0 0 0 0 0 0 0 0 0 0 0 0 0 0 0 0 0 0 0 0 0 0 0 0 0 0 0 0 0 0 0 0 0 0 0 0 0 0 0 0 0 0 0 0 0 0 0 0 0 0 0 0 0 0 0 0 0 0 0 0 0 0 0 0 0 0 0 0 0 0 0 0 0 0 0 0 0 0 0 0 0 
0 7.36048e-191 1.70006e-189 3.87636e-188 8.74036e-187 1.94866e-185 4.29536e-184 9.35992e-183 2.01607e-181 4.29193e-180 9.02948e-179 1.87709e-177 3.85538e-176 7.8227e-175 1.56783e-173 3.1034e-172 6.06621e-171 1.17079e-169 2.23081e-168 4.19574e-167 7.78848e-166 1.4267e-164 2.57858e-163 4.5976e-162 8.08566e-161 1.40237e-159 2.39827e-158 4.04344e-157 6.71958e-156 1.10051e-154 1.77593e-153 2.82329e-152 4.42077e-151 6.81653e-150 1.03482e-148 1.54634e-147 2.27402e-146 3.29026e-145 4.68288e-144 6.55448e-143 9.01981e-142 1.22006e-140 1.6217e-139 2.11763e-138 2.71581e-137 3.4197e-136 4.22655e-135 5.12577e-134 6.09769e-133 7.11312e-132 8.13378e-131 9.11394e-130 1.00032e-128 1.07503e-127 1.13078e-126 1.16366e-125 1.17105e-124 1.15194e-123 1.10709e-122 1.03901e-121 9.51731e-121 8.50416e-120 7.40843e-119 6.28842e-118 5.19765e-117 4.18062e-116 3.26997e-115 2.48546e-114 1.83442e-113 1.31363e-112 9.11938e-112 6.13184e-111 3.9897e-110 2.50947e-109 1.52426e-108 8.93069e-108 5.04131e-107 2.73832e-106 1.4293e-105 7.15874e-105 3.43522e-104 1.57676e-103 6.91043e-103 2.88639e-102 1.14667e-101 4.32335e-101 1.54344e-100 5.20443e-100 1.6532e-99 4.93318e-99 1.37879e-98 3.59832e-98 8.74102e-98 1.97023e-97 4.1082e-97 7.90319e-97 1.39982e-96 2.28041e-96 3.41864e-96 4.7291e-96 6.07084e-96 7.29921e-96 8.32828e-96 9.16627e-96 9.90013e-96 1.06357e-95 1.14271e-95 1.22407e-95 1.29807e-95 1.35587e-95 1.39528e-95 1.42066e-95 1.43766e-95 1.44782e-95 1.44782e-95 1.433e-95 1.40138e-95 1.35556e-95 1.30263e-95 1.25295e-95 1.21715e-95 1.20118e-95 1.20188e-95 1.20706e-95 1.20112e-95 1.17317e-95 1.12261e-95 1.05937e-95 9.99004e-96 9.55938e-96 9.37666e-96 9.42366e-96 9.60157e-96 9.76995e-96 9.79855e-96 9.61978e-96 9.26361e-96 8.85381e-96 8.5596e-96 8.52388e-96 8.80583e-96 9.36815e-96 1.01112e-95 1.09242e-95 1.17172e-95 1.24179e-95 1.29538e-95 1.3248e-95 1.32335e-95 1.28772e-95 1.21952e-95 1.1259e-95 1.01943e-95 9.1663e-96 8.34817e-96 7.87615e-96 7.80738e-96 8.09616e-96 8.60106e-96 9.12967e-96 9.51179e-96 9.66918e-96 9.64087e-96 9.54371e-96 9.4892e-96 9.51211e-96 9.56234e-96 9.56127e-96 9.46952e-96 9.30663e-96 9.11485e-96 8.91302e-96 8.68823e-96 8.42785e-96 8.1568e-96 7.94677e-96 7.8916e-96 8.06562e-96 8.48658e-96 9.09576e-96 9.76162e-96 1.03155e-95 1.06216e-95 1.06529e-95 1.052e-95 1.04173e-95 1.05159e-95 1.08784e-95 1.14554e-95 1.21529e-95 1.28999e-95 1.36599e-95 1.43897e-95 1.5001e-95 1.53642e-95 1.53491e-95 1.48659e-95 1.38853e-95 1.24403e-95 1.06228e-95 8.58091e-96 6.50615e-96 4.59784e-96 3.01222e-96 1.8234e-96 1.01847e-96 5.25046e-97 2.50179e-97 1.10424e-97 4.52688e-98 1.72867e-98 6.16732e-99 2.06173e-99 6.47676e-100 1.91719e-100 5.36134e-101 1.41985e-101 3.56918e-102 8.53447e-103 1.94508e-103 4.23312e-104 8.81266e-105 1.75786e-105 3.3648e-106 6.18943e-107 1.09558e-107 1.86846e-108 3.07389e-109 4.8836e-110 7.50059e-111 1.11477e-111 1.60479e-112 2.23964e-113 3.03269e-114 3.98763e-115 5.09528e-116 6.33136e-117 7.65598e-118 9.01488e-119 1.0343e-119 1.15694e-120 1.26243e-121 1.34451e-122 1.39833e-123 1.42087e-124 1.41127e-125 1.37078e-126 1.30264e-127 1.2116e-128 1.10343e-129 9.84354e-131 8.60484e-132 7.37351e-133 6.19554e-134 5.07409e-135 0 
0 1.69957e-189 3.92174e-188 8.93346e-187 2.01236e-185 4.48224e-184 9.87053e-183 2.1488e-181 4.62395e-180 9.83432e-179 2.06699e-177 4.29286e-176 8.80876e-175 1.78563e-173 3.57537e-172 7.07046e-171 1.38075e-169 2.66236e-168 5.06804e-167 9.52305e-166 1.76609e-164 3.23209e-163 5.83612e-162 1.0396e-160 1.82661e-159 3.1651e-158 5.40778e-157 9.10893e-156 1.51236e-154 2.4746e-153 3.98966e-152 6.33671e-151 9.913e-150 1.52711e-148 2.31618e-147 3.45794e-146 5.08052e-145 7.34426e-144 1.04432e-142 1.46038e-141 2.00784e-140 2.71343e-139 3.60344e-138 4.70118e-137 6.02372e-136 7.57816e-135 9.35779e-134 1.13386e-132 1.34765e-131 1.57068e-130 1.79447e-129 2.00893e-128 2.203e-127 2.36546e-126 2.48594e-125 2.556e-124 2.57e-123 2.52587e-122 2.42543e-121 2.27432e-120 2.08148e-119 1.85831e-118 1.61749e-117 1.37179e-116 1.13289e-115 9.10447e-115 7.11533e-114 5.40374e-113 3.98498e-112 2.8513e-111 1.97779e-110 1.32877e-109 8.63868e-109 5.42925e-108 3.2951e-107 1.92908e-106 1.0881e-105 5.90568e-105 3.08016e-104 1.54154e-103 7.39169e-103 3.39024e-102 1.48474e-101 6.19707e-101 2.46015e-100 9.26912e-100 3.30683e-99 1.11431e-98 3.53736e-98 1.0549e-97 2.94661e-97 7.68563e-97 1.866e-96 4.20389e-96 8.76178e-96 1.68489e-95 2.98329e-95 4.85869e-95 7.28234e-95 1.00726e-94 1.29296e-94 1.55459e-94 1.77385e-94 1.95246e-94 2.10889e-94 2.26559e-94 2.43406e-94 2.60717e-94 2.76457e-94 2.88754e-94 2.97137e-94 3.02537e-94 3.06152e-94 3.0831e-94 3.08307e-94 3.05151e-94 2.98424e-94 2.88678e-94 2.7742e-94 2.66855e-94 2.59244e-94 2.55846e-94 2.55989e-94 2.5708e-94 2.55803e-94 2.49844e-94 2.39081e-94 2.25617e-94 2.12768e-94 2.03598e-94 1.99702e-94 2.00694e-94 2.04472e-94 2.0805e-94 2.08659e-94 2.04861e-94 1.97296e-94 1.88594e-94 1.82351e-94 1.81603e-94 1.87609e-94 1.99578e-94 2.15392e-94 2.32699e-94 2.4958e-94 2.64493e-94 2.75899e-94 2.82154e-94 2.81839e-94 2.74247e-94 2.59721e-94 2.39788e-94 2.17121e-94 1.95236e-94 1.77817e-94 1.67763e-94 1.66291e-94 1.72429e-94 1.83171e-94 1.94423e-94 2.02564e-94 2.05926e-94 2.05335e-94 2.03274e-94 2.02113e-94 2.02597e-94 2.03664e-94 2.03647e-94 2.01705e-94 1.98249e-94 1.94173e-94 1.89877e-94 1.85086e-94 1.79535e-94 1.73757e-94 1.69279e-94 1.68097e-94 1.71794e-94 1.80747e-94 1.93706e-94 2.0787e-94 2.19653e-94 2.26166e-94 2.26839e-94 2.2402e-94 2.21842e-94 2.23941e-94 2.31654e-94 2.43935e-94 2.58784e-94 2.7469e-94 2.90873e-94 3.0641e-94 3.19421e-94 3.27153e-94 3.26832e-94 3.16547e-94 2.95676e-94 2.64917e-94 2.26226e-94 1.82757e-94 1.38586e-94 9.79542e-95 6.41884e-95 3.88667e-95 2.17169e-95 1.12002e-95 5.33921e-96 2.35781e-96 9.67117e-97 3.69523e-97 1.31913e-97 4.41261e-98 1.38709e-98 4.10869e-99 1.14977e-99 3.04711e-100 7.66521e-101 1.83421e-101 4.18342e-102 9.11132e-103 1.89827e-103 3.78939e-104 7.25907e-105 1.33633e-105 2.36728e-106 4.04051e-107 6.65255e-108 1.05777e-108 1.62592e-109 2.4185e-110 3.48446e-111 4.86691e-112 6.59576e-113 8.6799e-114 1.11002e-114 1.38047e-115 1.6707e-116 1.96891e-117 2.2609e-118 2.53117e-119 2.76432e-120 2.9466e-121 3.06719e-122 3.11935e-123 3.10096e-124 3.01464e-125 2.86729e-126 2.66923e-127 2.43307e-128 2.17243e-129 1.90074e-130 1.63019e-131 1.37098e-132 1.12381e-133 0 
0 3.8741e-188 8.93082e-187 2.03241e-185 4.57381e-184 1.01777e-182 2.23911e-181 4.86981e-180 1.04692e-178 2.22447e-177 4.67095e-176 9.69165e-175 1.98679e-173 4.02358e-172 8.04876e-171 1.59017e-169 3.10241e-168 5.97637e-167 1.13658e-165 2.13366e-164 3.95323e-163 7.22793e-162 1.30391e-160 2.32051e-159 4.07337e-158 7.05162e-157 1.20369e-155 2.02562e-154 3.36003e-153 5.49273e-152 8.84741e-151 1.40392e-149 2.19423e-148 3.37714e-147 5.11741e-146 7.63301e-145 1.12044e-143 1.6182e-142 2.29891e-141 3.21186e-140 4.41191e-139 5.95692e-138 7.90364e-137 1.03021e-135 1.31883e-134 1.65767e-133 2.04512e-132 2.4758e-131 2.94001e-130 3.42351e-129 3.90781e-128 4.37098e-127 4.789e-126 5.13764e-125 5.39459e-124 5.54176e-123 5.56727e-122 5.46692e-121 5.24499e-120 4.91396e-119 4.49344e-118 4.00823e-117 3.48583e-116 2.95382e-115 2.43733e-114 1.95711e-113 1.52824e-112 1.15966e-111 8.54476e-111 6.10882e-110 4.23387e-109 2.84219e-108 1.84628e-107 1.15942e-106 7.03109e-106 4.113e-105 2.31811e-104 1.25718e-103 6.55188e-103 3.27653e-102 1.56991e-101 7.19512e-101 3.14875e-100 1.31329e-99 5.20986e-99 1.96155e-98 6.99323e-98 2.35497e-97 7.47096e-97 2.22659e-96 6.21574e-96 1.62033e-95 3.93192e-95 8.85384e-95 1.8445e-94 3.54558e-94 6.27575e-94 1.02181e-93 1.53122e-93 2.11764e-93 2.71814e-93 3.26816e-93 3.72929e-93 4.10508e-93 4.4342e-93 4.76371e-93 5.1177e-93 5.48125e-93 5.81173e-93 6.0699e-93 6.24592e-93 6.35931e-93 6.43518e-93 6.48044e-93 6.4803e-93 6.414e-93 6.27274e-93 6.06811e-93 5.83178e-93 5.61003e-93 5.45029e-93 5.37893e-93 5.38179e-93 5.40446e-93 5.37739e-93 5.25202e-93 5.0258e-93 4.74291e-93 4.47294e-93 4.2802e-93 4.19822e-93 4.21888e-93 4.29807e-93 4.37312e-93 4.38589e-93 4.30628e-93 4.14768e-93 3.96529e-93 3.83452e-93 3.81909e-93 3.94539e-93 4.19684e-93 4.52906e-93 4.89268e-93 5.24737e-93 5.56069e-93 5.80027e-93 5.93156e-93 5.92477e-93 5.76508e-93 5.45973e-93 5.04083e-93 4.56451e-93 4.10463e-93 3.73856e-93 3.52718e-93 3.49607e-93 3.62486e-93 3.85044e-93 4.08686e-93 4.25806e-93 4.32895e-93 4.31678e-93 4.2736e-93 4.2492e-93 4.25927e-93 4.28166e-93 4.28141e-93 4.24086e-93 4.16851e-93 4.08302e-93 3.99272e-93 3.89194e-93 3.77514e-93 3.65356e-93 3.55929e-93 3.53431e-93 3.61183e-93 3.79977e-93 4.07184e-93 4.36924e-93 4.61666e-93 4.75347e-93 4.76773e-93 4.7087e-93 4.6631e-93 4.70725e-93 4.86924e-93 5.12722e-93 5.43923e-93 5.77356e-93 6.11367e-93 6.44016e-93 6.71352e-93 6.87596e-93 6.86925e-93 6.65321e-93 6.21472e-93 5.56845e-93 4.75546e-93 3.84202e-93 2.91378e-93 2.05986e-93 1.35012e-93 8.17748e-94 4.5708e-94 2.35828e-94 1.12473e-94 4.96933e-95 2.0394e-95 7.79676e-96 2.78498e-96 9.32189e-97 2.93222e-97 8.69132e-98 2.43385e-98 6.45468e-99 1.62489e-99 3.89103e-100 8.88114e-101 1.93573e-101 4.03601e-102 8.06302e-103 1.54578e-103 2.84786e-104 5.04892e-105 8.62446e-106 1.42113e-106 2.26145e-107 3.47896e-108 5.17906e-109 7.46789e-110 1.04394e-110 1.41595e-111 1.86493e-112 2.38696e-113 2.97103e-114 3.5987e-115 4.24467e-116 4.87832e-117 5.46615e-118 5.9748e-119 6.37427e-120 6.6409e-121 6.7597e-122 6.72572e-123 6.54422e-124 6.22981e-125 5.80459e-126 5.2957e-127 4.73259e-128 4.14439e-129 3.55766e-130 2.99463e-131 2.4569e-132 0 
0 8.73263e-187 2.01116e-185 4.57243e-184 1.028e-182 2.28531e-181 5.0229e-180 1.09138e-178 2.344e-177 4.97572e-176 1.04381e-174 2.1637e-173 4.43135e-172 8.9657e-171 1.79179e-169 3.53662e-168 6.89339e-167 1.32666e-165 2.52065e-164 4.72747e-163 8.75076e-162 1.59845e-160 2.88088e-159 5.12217e-158 8.98294e-157 1.55363e-155 2.64953e-154 4.45459e-153 7.38224e-152 1.20568e-150 1.94025e-149 3.07597e-148 4.8031e-147 7.38563e-146 1.11813e-144 1.66624e-143 2.44362e-142 3.52597e-141 5.00465e-140 6.98576e-139 9.58716e-138 1.29328e-136 1.71437e-135 2.2326e-134 2.85553e-133 3.58596e-132 4.42015e-131 5.34621e-130 6.34296e-129 7.37954e-128 8.41602e-127 9.40522e-126 1.02956e-124 1.10354e-123 1.15772e-122 1.18827e-121 1.1927e-120 1.17019e-119 1.12171e-118 1.05001e-117 9.59334e-117 8.55012e-116 7.42945e-115 6.29022e-114 5.18597e-113 4.1607e-112 3.24623e-111 2.46125e-110 1.81203e-109 1.29439e-108 8.96375e-108 6.01247e-107 3.90253e-106 2.44872e-105 1.4838e-104 8.67298e-104 4.8843e-103 2.64684e-102 1.37836e-101 6.88778e-101 3.29772e-100 1.51027e-99 6.60444e-99 2.75261e-98 1.0912e-97 4.10559e-97 1.46271e-96 4.92242e-96 1.5606e-95 4.64822e-95 1.29683e-94 3.37871e-94 8.1945e-94 1.84432e-93 3.84054e-93 7.37957e-93 1.30577e-92 2.12547e-92 3.18445e-92 4.40347e-92 5.65186e-92 6.79555e-92 7.75477e-92 8.53677e-92 9.22165e-92 9.90696e-92 1.06427e-91 1.13978e-91 1.2084e-91 1.26201e-91 1.29857e-91 1.32212e-91 1.33787e-91 1.34725e-91 1.34721e-91 1.33343e-91 1.30409e-91 1.2616e-91 1.21253e-91 1.1665e-91 1.13334e-91 1.11852e-91 1.11908e-91 1.12374e-91 1.11807e-91 1.09198e-91 1.04495e-91 9.86164e-92 9.30059e-92 8.89994e-92 8.72929e-92 8.77184e-92 8.93602e-92 9.0917e-92 9.11825e-92 8.95318e-92 8.62432e-92 8.24621e-92 7.97534e-92 7.94385e-92 8.20651e-92 8.72902e-92 9.41929e-92 1.01749e-91 1.0912e-91 1.15631e-91 1.20608e-91 1.23334e-91 1.23189e-91 1.19867e-91 1.13518e-91 1.04811e-91 9.4911e-92 8.53531e-92 7.77438e-92 7.33483e-92 7.26982e-92 7.53709e-92 8.00561e-92 8.49694e-92 8.85303e-92 9.00086e-92 8.97609e-92 8.88665e-92 8.83592e-92 8.85667e-92 8.90314e-92 8.90286e-92 8.8191e-92 8.66929e-92 8.49192e-92 8.30426e-92 8.09455e-92 7.85146e-92 7.59841e-92 7.40214e-92 7.34986e-92 7.51062e-92 7.90081e-92 8.4658e-92 9.08342e-92 9.59725e-92 9.8815e-92 9.91137e-92 9.78914e-92 9.69469e-92 9.78653e-92 1.0123e-91 1.0659e-91 1.13075e-91 1.20025e-91 1.27095e-91 1.33881e-91 1.39561e-91 1.42936e-91 1.42797e-91 1.38309e-91 1.29198e-91 1.15767e-91 9.88711e-92 7.98865e-92 6.05932e-92 4.28428e-92 2.80874e-92 1.70172e-92 9.51507e-93 4.91125e-93 2.34337e-93 1.03588e-93 4.2535e-94 1.62707e-94 5.81535e-95 1.94773e-95 6.13061e-96 1.81837e-96 5.09551e-97 1.3523e-97 3.40668e-98 8.16375e-99 1.86472e-99 4.06739e-100 8.48694e-101 1.6968e-101 3.25548e-102 6.00243e-103 1.065e-103 1.82065e-104 3.00245e-105 4.78168e-106 7.36199e-107 1.09686e-107 1.58291e-108 2.21458e-109 3.00625e-110 3.96279e-111 5.07629e-112 6.32375e-113 7.66621e-114 9.04998e-115 1.04098e-115 1.16742e-116 1.27715e-117 1.36371e-118 1.42198e-119 1.44868e-120 1.44265e-121 1.40495e-122 1.33862e-123 1.24835e-124 1.13991e-125 1.0196e-126 8.93665e-128 7.67827e-129 6.46887e-130 5.31198e-131 0 
0 1.94633e-185 4.47817e-184 1.01714e-182 2.28461e-181 5.07393e-180 1.11413e-178 2.41846e-177 5.18928e-176 1.1005e-174 2.30642e-173 4.7764e-172 9.77296e-171 1.97543e-169 3.94413e-168 7.77753e-167 1.51452e-165 2.91201e-164 5.52758e-163 1.03572e-161 1.91536e-160 3.49539e-159 6.29381e-158 1.11799e-156 1.95882e-155 3.3847e-154 5.76682e-153 9.68662e-152 1.6038e-150 2.61692e-149 4.20741e-148 6.66407e-147 1.03963e-145 1.59715e-144 2.41574e-143 3.59667e-142 5.26986e-141 7.59712e-140 1.07733e-138 1.50243e-137 2.06005e-136 2.77643e-135 3.67713e-134 4.78436e-133 6.11378e-132 7.67079e-131 9.44679e-130 1.14158e-128 1.35321e-127 1.57296e-126 1.79231e-125 2.0012e-124 2.18874e-123 2.34396e-122 2.45689e-121 2.51952e-120 2.52672e-119 2.47689e-118 2.37224e-117 2.2187e-116 2.02536e-115 1.80357e-114 1.56585e-113 1.32462e-112 1.09116e-111 8.74708e-111 6.81888e-110 5.1657e-109 3.79998e-108 2.71222e-107 1.8767e-106 1.25778e-105 8.15734e-105 5.11439e-104 3.0966e-103 1.80857e-102 1.01772e-101 5.51086e-101 2.86761e-100 1.43189e-99 6.85042e-99 3.13499e-98 1.36994e-97 5.70555e-97 2.26022e-96 8.49812e-96 3.02561e-95 1.01753e-94 3.22393e-94 9.5965e-94 2.6758e-93 6.96752e-93 1.68897e-92 3.79951e-92 7.90846e-92 1.51901e-91 2.68691e-91 4.37247e-91 6.54971e-91 9.05583e-91 1.16225e-90 1.39745e-90 1.59479e-90 1.75573e-90 1.89668e-90 2.03763e-90 2.18884e-90 2.34396e-90 2.48489e-90 2.59498e-90 2.67006e-90 2.71842e-90 2.75075e-90 2.76999e-90 2.76987e-90 2.74156e-90 2.6813e-90 2.59404e-90 2.49328e-90 2.39878e-90 2.33071e-90 2.30026e-90 2.30138e-90 2.31085e-90 2.29907e-90 2.24538e-90 2.14871e-90 2.02789e-90 1.91257e-90 1.8302e-90 1.79508e-90 1.80374e-90 1.83741e-90 1.86935e-90 1.8748e-90 1.84095e-90 1.77352e-90 1.696e-90 1.64051e-90 1.63416e-90 1.68818e-90 1.79556e-90 1.9374e-90 2.09269e-90 2.24418e-90 2.37798e-90 2.48024e-90 2.53619e-90 2.53315e-90 2.4648e-90 2.33426e-90 2.15526e-90 1.95177e-90 1.75531e-90 1.59889e-90 1.5085e-90 1.49506e-90 1.54991e-90 1.64615e-90 1.74713e-90 1.82038e-90 1.85087e-90 1.84589e-90 1.82756e-90 1.81713e-90 1.82136e-90 1.8309e-90 1.83089e-90 1.81379e-90 1.78311e-90 1.74672e-90 1.70815e-90 1.66499e-90 1.61495e-90 1.56287e-90 1.52245e-90 1.51163e-90 1.54459e-90 1.6247e-90 1.74074e-90 1.86758e-90 1.97312e-90 2.03153e-90 2.03772e-90 2.01268e-90 1.99334e-90 2.01223e-90 2.08136e-90 2.1915e-90 2.32479e-90 2.46767e-90 2.61302e-90 2.7525e-90 2.86923e-90 2.93859e-90 2.93574e-90 2.84351e-90 2.65628e-90 2.38025e-90 2.03298e-90 1.64276e-90 1.24617e-90 8.81263e-91 5.77882e-91 3.50219e-91 1.95892e-91 1.01151e-91 4.82854e-92 2.1355e-92 8.77343e-93 3.35797e-93 1.2009e-93 4.02466e-94 1.2676e-94 3.76229e-95 1.055e-95 2.80183e-96 7.06333e-97 1.69388e-97 3.87191e-98 8.45182e-99 1.76488e-99 3.53122e-100 6.78023e-101 1.25111e-101 2.22156e-102 3.80084e-103 6.273e-104 9.99835e-105 1.54062e-105 2.29723e-106 3.3179e-107 4.64577e-108 6.31176e-109 8.32698e-110 1.06757e-110 1.33103e-111 1.61496e-112 1.90808e-113 2.19665e-114 2.46556e-115 2.69961e-116 2.88507e-117 3.01094e-118 3.07013e-119 3.06001e-120 2.98263e-121 2.8443e-122 2.65481e-123 2.42633e-124 2.17216e-125 1.90555e-126 1.63868e-127 1.3818e-128 1.13568e-129 0 
0 4.28887e-184 9.85846e-183 2.23703e-181 5.01976e-180 1.11378e-178 2.44328e-177 5.29859e-176 1.13583e-174 2.40647e-173 5.03865e-172 1.04247e-170 2.13096e-169 4.30327e-168 8.58375e-167 1.69105e-165 3.28987e-164 6.31955e-163 1.19845e-161 2.24346e-160 4.14494e-159 7.55713e-158 1.35947e-156 2.4126e-155 4.22318e-154 7.29054e-153 1.241e-151 2.0826e-150 3.44493e-149 5.61592e-148 9.02078e-147 1.42748e-145 2.22489e-144 3.4149e-143 5.16042e-142 7.67605e-141 1.12367e-139 1.61844e-138 2.29298e-137 3.19487e-136 4.37667e-135 5.89334e-134 7.79816e-133 1.01372e-131 1.29424e-130 1.6224e-129 1.99625e-128 2.41018e-127 2.85447e-126 3.31507e-125 3.77402e-124 4.21019e-123 4.60069e-122 4.92266e-121 5.15534e-120 5.28217e-119 5.29269e-118 5.18382e-117 4.96054e-116 4.6355e-115 4.22795e-114 3.76177e-113 3.26318e-112 2.75814e-111 2.27013e-110 1.81828e-109 1.41628e-108 1.07203e-107 7.87954e-107 5.61939e-106 3.88513e-105 2.60174e-104 1.68601e-103 1.05623e-102 6.39007e-102 3.7292e-101 2.09687e-100 1.13456e-99 5.89923e-99 2.94344e-98 1.40715e-97 6.43486e-97 2.80989e-96 1.16943e-95 4.62939e-95 1.73939e-94 6.18865e-94 2.07992e-93 6.58582e-93 1.95917e-92 5.45959e-92 1.42083e-91 3.4424e-91 7.74029e-91 1.61039e-90 3.09197e-90 5.46744e-90 8.89497e-90 1.33216e-89 1.84166e-89 2.36352e-89 2.84183e-89 3.24329e-89 3.57082e-89 3.85766e-89 4.14437e-89 4.45168e-89 4.76676e-89 5.05295e-89 5.2765e-89 5.42899e-89 5.52722e-89 5.59284e-89 5.63185e-89 5.63155e-89 5.574e-89 5.45162e-89 5.2744e-89 5.06983e-89 4.87798e-89 4.7398e-89 4.67797e-89 4.68012e-89 4.69916e-89 4.67501e-89 4.56575e-89 4.36922e-89 4.12366e-89 3.8893e-89 3.72184e-89 3.65033e-89 3.66779e-89 3.73604e-89 3.80084e-89 3.81193e-89 3.7433e-89 3.60656e-89 3.44941e-89 3.33701e-89 3.32434e-89 3.43423e-89 3.65244e-89 3.94066e-89 4.25623e-89 4.56411e-89 4.83602e-89 5.04377e-89 5.15736e-89 5.15102e-89 5.01196e-89 4.74654e-89 4.38267e-89 3.96905e-89 3.56973e-89 3.25175e-89 3.06792e-89 3.04045e-89 3.15178e-89 3.34727e-89 3.55251e-89 3.70151e-89 3.7637e-89 3.75379e-89 3.71667e-89 3.69546e-89 3.70398e-89 3.72334e-89 3.72344e-89 3.6889e-89 3.62678e-89 3.55295e-89 3.47455e-89 3.38674e-89 3.28488e-89 3.17884e-89 3.09653e-89 3.07437e-89 3.1412e-89 3.30386e-89 3.53949e-89 3.7971e-89 4.01146e-89 4.13014e-89 4.14282e-89 4.09211e-89 4.05295e-89 4.09137e-89 4.23183e-89 4.45563e-89 4.72654e-89 5.01702e-89 5.3125e-89 5.59599e-89 5.83321e-89 5.97415e-89 5.96838e-89 5.78099e-89 5.4005e-89 4.83953e-89 4.13369e-89 3.34053e-89 2.53438e-89 1.79256e-89 1.17573e-89 7.12743e-90 3.98804e-90 2.0601e-90 9.83851e-91 4.35338e-91 1.78948e-91 6.853e-92 2.45226e-92 8.22356e-93 2.59175e-93 7.69749e-94 2.15996e-94 5.74031e-95 1.44814e-95 3.47533e-96 7.94982e-97 1.73662e-97 3.62907e-98 7.26667e-99 1.39633e-99 2.57856e-100 4.58226e-101 7.84593e-102 1.29594e-102 2.06722e-103 3.18788e-104 4.75734e-105 6.87667e-106 9.63671e-107 1.31033e-107 1.73012e-108 2.21998e-109 2.77016e-110 3.36389e-111 3.9778e-112 4.58328e-113 5.14873e-114 5.64232e-115 6.0351e-116 6.30383e-117 6.43329e-118 6.41764e-119 6.26079e-120 5.97564e-121 5.58242e-122 5.10645e-123 4.57555e-124 4.0175e-125 3.4579e-126 2.91842e-127 2.4007e-128 0 
0 9.34275e-183 2.14548e-181 4.86372e-180 1.09034e-178 2.41691e-177 5.29688e-176 1.1476e-174 2.4577e-173 5.20214e-172 1.08818e-170 2.24925e-169 4.59344e-168 9.26721e-167 1.84679e-165 3.63484e-164 7.06477e-163 1.3558e-161 2.56875e-160 4.80409e-159 8.86757e-158 1.61524e-156 2.90297e-155 5.14701e-154 9.00128e-153 1.55246e-151 2.64017e-150 4.42651e-149 7.31536e-148 1.19145e-146 1.91204e-145 3.0229e-144 4.70723e-143 7.21832e-142 1.0898e-140 1.61958e-139 2.3687e-138 3.40856e-137 4.82485e-136 6.71649e-135 9.19266e-134 1.23671e-132 1.63497e-131 2.12347e-130 2.70866e-129 3.39242e-128 4.17043e-127 5.03073e-126 5.95281e-125 6.90729e-124 7.85663e-123 8.75695e-122 9.56081e-121 1.0221e-119 1.06948e-118 1.09484e-117 1.09607e-116 1.07261e-115 1.02553e-114 9.5751e-114 8.72583e-113 7.75714e-112 6.72331e-111 5.67798e-110 4.66944e-109 3.73691e-108 2.90832e-107 2.19958e-106 1.6154e-105 1.1511e-104 7.95201e-104 5.32092e-103 3.44535e-102 2.15669e-101 1.30374e-100 7.6026e-100 4.27151e-99 2.30942e-98 1.19989e-97 5.98239e-97 2.85784e-96 1.30592e-95 5.69841e-95 2.36991e-94 9.37512e-94 3.5201e-93 1.25159e-92 4.2037e-92 1.33021e-91 3.95476e-91 1.10143e-90 2.86484e-90 6.93735e-90 1.55913e-89 3.24242e-89 6.22309e-89 1.10006e-88 1.78921e-88 2.67911e-88 3.70332e-88 4.75246e-88 5.71428e-88 6.52185e-88 7.18093e-88 7.75815e-88 8.33473e-88 8.95229e-88 9.5851e-88 1.01597e-87 1.06086e-87 1.09148e-87 1.1112e-87 1.12437e-87 1.13219e-87 1.13212e-87 1.12056e-87 1.09598e-87 1.0604e-87 1.01933e-87 9.80817e-88 9.53083e-88 9.40667e-88 9.41079e-88 9.44863e-88 9.39967e-88 9.17981e-88 8.78477e-88 8.29132e-88 7.82036e-88 7.48373e-88 7.33979e-88 7.37454e-88 7.51137e-88 7.64137e-88 7.66366e-88 7.52606e-88 7.25191e-88 6.93694e-88 6.7118e-88 6.68684e-88 6.90785e-88 7.34629e-88 7.92538e-88 8.55947e-88 9.17814e-88 9.72451e-88 1.01418e-87 1.03698e-87 1.03568e-87 1.0077e-87 9.54343e-88 8.81204e-88 7.98076e-88 7.17822e-88 6.5391e-88 6.16945e-88 6.11394e-88 6.33734e-88 6.72999e-88 7.14243e-88 7.44213e-88 7.56755e-88 7.54806e-88 7.47371e-88 7.43107e-88 7.44804e-88 7.48691e-88 7.48734e-88 7.41838e-88 7.29402e-88 7.14594e-88 6.98838e-88 6.81168e-88 6.60666e-88 6.39321e-88 6.22744e-88 6.18257e-88 6.31653e-88 6.64304e-88 7.11619e-88 7.63349e-88 8.06397e-88 8.30241e-88 8.32812e-88 8.22658e-88 8.14815e-88 8.22544e-88 8.50759e-88 8.95723e-88 9.5017e-88 1.00856e-87 1.06795e-87 1.12493e-87 1.17259e-87 1.20091e-87 1.19975e-87 1.1621e-87 1.08565e-87 9.72925e-88 8.31076e-88 6.71668e-88 5.0964e-88 3.60529e-88 2.36522e-88 1.43424e-88 8.02781e-89 4.14858e-89 1.98214e-89 8.77496e-90 3.60891e-90 1.38284e-90 4.95126e-91 1.66141e-91 5.23947e-92 1.55714e-92 4.37238e-93 1.16281e-93 2.93555e-94 7.04996e-95 1.61386e-95 3.52804e-96 7.37817e-97 1.47849e-97 2.84318e-98 5.25445e-99 9.34476e-100 1.60131e-100 2.64704e-101 4.22579e-102 6.52188e-103 9.7406e-104 1.40914e-104 1.97633e-105 2.68948e-106 3.55405e-107 4.5641e-108 5.69999e-109 6.92749e-110 8.19865e-111 9.45461e-112 1.06301e-112 1.16591e-113 1.24814e-114 1.30483e-115 1.33278e-116 1.33068e-117 1.29929e-118 1.24119e-119 1.16053e-120 1.06251e-121 9.52875e-123 8.37395e-124 7.21392e-125 6.09383e-126 5.01719e-127 0 
0 2.01171e-181 4.61527e-180 1.04526e-178 2.341e-177 5.18423e-176 1.13508e-174 2.45688e-173 5.25662e-172 1.11159e-170 2.32302e-169 4.79708e-168 9.78736e-167 1.97272e-165 3.92756e-164 7.72291e-163 1.49963e-161 2.87524e-160 5.44241e-159 1.01689e-157 1.87526e-156 3.41262e-155 6.12758e-154 1.08542e-152 1.89645e-151 3.2678e-150 5.55218e-149 9.3002e-148 1.53556e-146 2.49864e-145 4.00616e-144 6.32784e-143 9.84464e-142 1.50825e-140 2.27503e-139 3.37792e-138 4.93586e-137 7.09626e-136 1.00357e-134 1.39578e-133 1.90864e-132 2.56543e-131 3.38854e-130 4.39703e-129 5.60379e-128 7.01214e-127 8.61264e-126 1.03801e-124 1.22719e-123 1.4227e-122 1.61682e-121 1.80052e-120 1.96409e-119 2.09788e-118 2.19323e-117 2.2433e-116 2.24389e-115 2.19397e-114 2.09587e-113 1.9552e-112 1.78027e-111 1.5813e-110 1.3694e-109 1.15552e-108 9.49479e-108 7.59229e-107 5.90396e-106 4.46153e-105 3.27392e-104 2.33104e-103 1.60902e-102 1.07578e-101 6.96024e-101 4.35346e-100 2.62965e-99 1.53225e-98 8.60227e-98 4.64732e-97 2.41275e-96 1.20204e-95 5.73802e-95 2.62014e-94 1.14248e-93 4.7481e-93 1.877e-92 7.04282e-92 2.50246e-91 8.39954e-91 2.65627e-90 7.89242e-90 2.19682e-89 5.71086e-89 1.38221e-88 3.10495e-88 6.4544e-88 1.23831e-87 2.18825e-87 3.55823e-87 5.32696e-87 7.36257e-87 9.44789e-87 1.13601e-86 1.29662e-86 1.42775e-86 1.54258e-86 1.65722e-86 1.77991e-86 1.90556e-86 2.01963e-86 2.10873e-86 2.16952e-86 2.20867e-86 2.23481e-86 2.2503e-86 2.25013e-86 2.22716e-86 2.17836e-86 2.10773e-86 2.02622e-86 1.94979e-86 1.89476e-86 1.87012e-86 1.87089e-86 1.87833e-86 1.86852e-86 1.82478e-86 1.74627e-86 1.64823e-86 1.55466e-86 1.48776e-86 1.45912e-86 1.46596e-86 1.49308e-86 1.51886e-86 1.52329e-86 1.49602e-86 1.44168e-86 1.37926e-86 1.33468e-86 1.32983e-86 1.37377e-86 1.46087e-86 1.5759e-86 1.70186e-86 1.82477e-86 1.93331e-86 2.01619e-86 2.06143e-86 2.05878e-86 2.00314e-86 1.89708e-86 1.75174e-86 1.58656e-86 1.4271e-86 1.30009e-86 1.22661e-86 1.21551e-86 1.25984e-86 1.3378e-86 1.41975e-86 1.47935e-86 1.50436e-86 1.50057e-86 1.48585e-86 1.47737e-86 1.48072e-86 1.48843e-86 1.48856e-86 1.47495e-86 1.45034e-86 1.42098e-86 1.38967e-86 1.35452e-86 1.31372e-86 1.27124e-86 1.23823e-86 1.22924e-86 1.25579e-86 1.32058e-86 1.41451e-86 1.51721e-86 1.60268e-86 1.65005e-86 1.6552e-86 1.63509e-86 1.61957e-86 1.63494e-86 1.69098e-86 1.78029e-86 1.88848e-86 2.00452e-86 2.12255e-86 2.23574e-86 2.33043e-86 2.38668e-86 2.38439e-86 2.30961e-86 2.15774e-86 1.93378e-86 1.65194e-86 1.3352e-86 1.01323e-86 7.16898e-87 4.70421e-87 2.85338e-87 1.59766e-87 8.25958e-88 3.94808e-88 1.74867e-88 7.1956e-89 2.75871e-89 9.88336e-90 3.31842e-90 1.04717e-90 3.11418e-91 8.75034e-92 2.32871e-92 5.88302e-93 1.41386e-93 3.23892e-94 7.0858e-95 1.48295e-95 2.97389e-96 5.72324e-97 1.05852e-97 1.88399e-98 3.23091e-99 5.34506e-100 8.53976e-101 1.31904e-101 1.97161e-102 2.85457e-103 4.00683e-104 5.45715e-105 7.21739e-106 9.27623e-107 1.15945e-107 1.41032e-108 1.67051e-109 1.92804e-110 2.16958e-111 2.38162e-112 2.55176e-113 2.66996e-114 2.72949e-115 2.72755e-116 2.6655e-117 2.54852e-118 2.38497e-119 2.18544e-120 1.96166e-121 1.72544e-122 1.48772e-123 1.25784e-124 1.03651e-125 0 
0 4.28119e-180 9.81252e-179 2.2202e-177 4.96767e-176 1.09906e-174 2.40407e-173 5.19864e-172 1.11122e-170 2.34761e-169 4.9014e-168 1.01119e-166 2.06115e-165 4.15048e-164 8.25555e-163 1.62179e-161 3.14623e-160 6.0266e-159 1.13968e-157 2.12745e-156 3.91958e-155 7.12625e-154 1.27837e-152 2.26236e-151 3.94915e-150 6.79852e-149 1.15404e-147 1.9313e-146 3.18583e-145 5.17919e-144 8.29636e-143 1.30923e-141 2.035e-140 3.11488e-139 4.69419e-138 6.96349e-137 1.01659e-135 1.46023e-134 2.06323e-133 2.86698e-132 3.91689e-131 5.26004e-130 6.94148e-129 8.99938e-128 1.1459e-126 1.43262e-125 1.75805e-124 2.11697e-123 2.50058e-122 2.89642e-121 3.28874e-120 3.65921e-119 3.98815e-118 4.25614e-117 4.44573e-116 4.54331e-115 4.54061e-114 4.43578e-113 4.23384e-112 3.94632e-111 3.59021e-110 3.18626e-109 2.75697e-108 2.32443e-107 1.90838e-106 1.52473e-105 1.18469e-104 8.9452e-104 6.55874e-103 4.66605e-102 3.2182e-101 2.14994e-100 1.3899e-99 8.68662e-99 5.24293e-98 3.05259e-97 1.71245e-96 9.24436e-96 4.79579e-95 2.38751e-94 1.13885e-93 5.19654e-93 2.26427e-92 9.40357e-92 3.71481e-91 1.39292e-90 4.94607e-90 1.65909e-89 5.24345e-89 1.55702e-88 4.33143e-88 1.12539e-87 2.7224e-87 6.11266e-87 1.27012e-86 2.43588e-86 4.30316e-86 6.9954e-86 1.04707e-85 1.44703e-85 1.85678e-85 2.2326e-85 2.54838e-85 2.80628e-85 3.03212e-85 3.25744e-85 3.49841e-85 3.74505e-85 3.96889e-85 4.14372e-85 4.26301e-85 4.33984e-85 4.3911e-85 4.42146e-85 4.42107e-85 4.37596e-85 4.28018e-85 4.14158e-85 3.98165e-85 3.83173e-85 3.72379e-85 3.67543e-85 3.67687e-85 3.69132e-85 3.67188e-85 3.58586e-85 3.43163e-85 3.23908e-85 3.0553e-85 2.92386e-85 2.86751e-85 2.88082e-85 2.93396e-85 2.98451e-85 2.99322e-85 2.93978e-85 2.83331e-85 2.71105e-85 2.62379e-85 2.61444e-85 2.70082e-85 2.87187e-85 3.09775e-85 3.34511e-85 3.5865e-85 3.79964e-85 3.96234e-85 4.0511e-85 4.04576e-85 3.93637e-85 3.72797e-85 3.44245e-85 3.118e-85 2.80478e-85 2.55529e-85 2.41086e-85 2.38896e-85 2.47588e-85 2.62894e-85 2.7899e-85 2.90706e-85 2.95635e-85 2.94909e-85 2.92026e-85 2.90361e-85 2.91012e-85 2.92526e-85 2.92561e-85 2.89907e-85 2.85092e-85 2.79335e-85 2.73187e-85 2.66274e-85 2.58247e-85 2.49888e-85 2.4339e-85 2.4161e-85 2.46809e-85 2.5952e-85 2.77953e-85 2.98109e-85 3.14885e-85 3.24185e-85 3.25205e-85 3.21271e-85 3.18233e-85 3.21254e-85 3.32257e-85 3.49795e-85 3.71045e-85 3.93843e-85 4.1703e-85 4.39263e-85 4.57857e-85 4.68902e-85 4.68453e-85 4.53771e-85 4.23946e-85 3.7996e-85 3.24603e-85 2.62385e-85 1.99138e-85 1.40922e-85 9.2492e-86 5.61177e-86 3.1432e-86 1.62561e-86 7.77385e-87 3.44484e-87 1.41825e-87 5.44045e-88 1.95023e-88 6.55206e-89 2.0689e-89 6.15669e-90 1.73109e-90 4.61005e-91 1.16545e-91 2.80292e-92 6.42565e-93 1.40677e-93 2.94635e-94 5.913e-95 1.13882e-95 2.10788e-96 3.75457e-97 6.44385e-98 1.06688e-98 1.70589e-99 2.63701e-100 3.94479e-101 5.71603e-102 8.02985e-103 1.09453e-103 1.44877e-104 1.86358e-105 2.33125e-106 2.83802e-107 3.36442e-108 3.88636e-109 4.37692e-110 4.80877e-111 5.15671e-112 5.40018e-113 5.5253e-114 5.52613e-115 5.40507e-116 5.17234e-117 4.84461e-118 4.44316e-119 3.99168e-120 3.51408e-121 3.03261e-122 2.56626e-123 2.11655e-124 0 