# vtk DataFile Version 3.0
Gray-Scott Simulation Output
ASCII
DATASET STRUCTURED_POINTS
DIMENSIONS 256 256 1
SPACING 1.0 1.0 1.0
ORIGIN 0 0 0
POINT_DATA 65536
SCALARS u double
LOOKUP_TABLE default
0 0 0 0 0 0 0 0 0 0 0 0 0 0 0 0 0 0 0 0 0 0 0 0 0 0 0 0 0 0 0 0 0 0 0 0 0 0 0 0 0 0 0 0 0 0 0 0 0 0 0 0 0 0 0 0 0 0 0 0 0 0 0 0 0 0 0 0 0 0 0 0 0 0 0 0 0 0 0 0 0 0 0 0 0 0 0 0 0 0 0 0 0 0 0 0 0 0 0 0 0 0 0 0 0 0 0 0 0 0 0 0 0 0 0 0 0 0 0 0 0 0 0 0 0 0 0 0 0 0 0 0 0 0 0 0 0 0 0 0 0 0 0 0 0 0 0 0 0 0 0 0 0 0 0 0 0 0 0 0 0 0 0 0 0 0 0 0 0 0 0 0 0 0 0 0 0 0 0 0 0 0 0 0 0 0 0 0 0 0 0 0 0 0 0 0 0 0 0 0 0 0 0 0 0 0 0 0 0 0 0 0 0 0 0 0 0 0 0 0 0 0 0 0 0 0 0 0 0 0 0 0 0 0 0 0 0 0 0 0 0 0 0 0 0 0 0 0 0 0 0 0 0 0 0 0 
0 1.97939e-215 6.50271e-214 2.1099e-212 6.76673e-211 2.14487e-209 6.71866e-208 2.07958e-206 6.35968e-205 1.92137e-203 5.73393e-202 1.69009e-200 4.91961e-199 1.41404e-197 4.0128e-196 1.12418e-194 3.1086e-193 8.48357e-192 2.28464e-190 6.07044e-189 1.59119e-187 4.11399e-186 1.04899e-184 2.63746e-183 6.53782e-182 1.5975e-180 3.84716e-179 9.12962e-178 2.13453e-176 4.91599e-175 1.11505e-173 2.49042e-172 5.47593e-171 1.18512e-169 2.52402e-168 5.2888e-167 1.09008e-165 2.20952e-164 4.40322e-163 8.62527e-162 1.66033e-160 3.13994e-159 5.83228e-158 1.06371e-156 1.90439e-155 3.34581e-154 5.76673e-153 9.74767e-152 1.61537e-150 2.62359e-149 4.1746e-148 6.50537e-147 9.92427e-146 1.48157e-144 2.16353e-143 3.0891e-142 4.31056e-141 5.87578e-140 7.8201e-139 1.01567e-137 1.28662e-136 1.58879e-135 1.91136e-134 2.23877e-133 2.55145e-132 2.82733e-131 3.04416e-130 3.18223e-129 3.22715e-128 3.17224e-127 3.01982e-126 2.78133e-125 2.47597e-124 2.1281e-123 1.764e-122 1.40842e-121 1.08177e-120 7.98166e-120 5.64885e-119 3.82856e-118 2.48064e-117 1.53367e-116 9.02925e-116 5.05088e-115 2.67814e-114 1.34249e-113 6.34388e-113 2.81708e-112 1.17152e-111 4.54528e-111 1.63844e-110 5.46242e-110 1.67601e-109 4.70746e-109 1.20356e-108 2.78493e-108 5.79984e-108 1.082e-107 1.8031e-107 2.68536e-107 3.59435e-107 4.37729e-107 4.9456e-107 5.32018e-107 5.61417e-107 5.96784e-107 6.4602e-107 7.04641e-107 7.5823e-107 7.93784e-107 8.10251e-107 8.17799e-107 8.26726e-107 8.37778e-107 8.43393e-107 8.36481e-107 8.15779e-107 7.83934e-107 7.44858e-107 7.05544e-107 6.77208e-107 6.69544e-107 6.81916e-107 7.01198e-107 7.09303e-107 6.94123e-107 6.55765e-107 6.05082e-107 5.57581e-107 5.26724e-107 5.18652e-107 5.30572e-107 5.53343e-107 5.75015e-107 5.83468e-107 5.70636e-107 5.37822e-107 4.96922e-107 4.65343e-107 4.57624e-107 4.78435e-107 5.21228e-107 5.73735e-107 6.26174e-107 6.75075e-107 7.19787e-107 7.57084e-107 7.80322e-107 7.83009e-107 7.62146e-107 7.18531e-107 6.55973e-107 5.82058e-107 5.08858e-107 4.50583e-107 4.18807e-107 4.18806e-107 4.47814e-107 4.94266e-107 5.40118e-107 5.68266e-107 5.71399e-107 5.55994e-107 5.38186e-107 5.3272e-107 5.42017e-107 5.5503e-107 5.58057e-107 5.47336e-107 5.3067e-107 5.17461e-107 5.09172e-107 4.99925e-107 4.84227e-107 4.62777e-107 4.4251e-107 4.32863e-107 4.41106e-107 4.69564e-107 5.15305e-107 5.69359e-107 6.15934e-107 6.37966e-107 6.29078e-107 6.01078e-107 5.77958e-107 5.79744e-107 6.09355e-107 6.53978e-107 6.99149e-107 7.4095e-107 7.84538e-107 8.32936e-107 8.79605e-107 9.11501e-107 9.16948e-107 8.90094e-107 8.30467e-107 7.4075e-107 6.25625e-107 4.93221e-107 3.57216e-107 2.34573e-107 1.38575e-107 7.34586e-108 3.49883e-108 1.5029e-108 5.85046e-109 2.07504e-109 6.74172e-110 2.01679e-110 5.58206e-111 1.43585e-111 3.44651e-112 7.74875e-113 1.63738e-113 3.262e-114 6.14435e-115 1.09712e-115 1.8615e-116 3.00784e-117 4.63776e-118 6.83655e-119 9.6515e-120 1.30701e-120 1.70034e-121 2.12801e-122 2.56539e-123 2.98268e-124 3.34829e-125 3.63305e-126 3.81404e-127 3.87774e-128 3.82152e-129 3.65365e-130 3.39154e-131 3.05897e-132 2.6827e-133 2.28921e-134 1.90193e-135 1.53947e-136 1.2147e-137 9.3482e-139 7.0208e-140 5.14831e-141 3.68787e-142 2.58181e-143 1.76728e-144 1.18333e-145 7.75367e-147 4.97373e-148 3.12462e-149 1.92314e-150 1.16005e-151 6.83781e-153 0 
0 6.5014e-214 2.13287e-212 6.91074e-211 2.21328e-209 7.00573e-208 2.19145e-206 6.77365e-205 2.06862e-203 6.241e-202 1.85993e-200 5.47463e-199 1.59139e-197 4.56785e-196 1.2945e-194 3.62155e-193 1.00007e-191 2.72554e-190 7.32993e-189 1.94496e-187 5.09126e-186 1.31455e-184 3.34733e-183 8.40476e-182 2.08059e-180 5.07704e-179 1.22103e-177 2.89371e-176 6.75653e-175 1.554e-173 3.52011e-172 7.85156e-171 1.7241e-169 3.72641e-168 7.92586e-167 1.65858e-165 3.41401e-164 6.91086e-163 1.37542e-161 2.69071e-160 5.17272e-159 9.76965e-158 1.8123e-156 3.30104e-155 5.90225e-154 1.03562e-152 1.78265e-151 3.00938e-150 4.98069e-149 8.07894e-148 1.28386e-146 1.99811e-145 3.04432e-144 4.53901e-143 6.61988e-142 9.43993e-141 1.31559e-139 1.79104e-138 2.38071e-137 3.08817e-136 3.90712e-135 4.81871e-134 5.78983e-133 6.7732e-132 7.70963e-131 8.53273e-130 9.17584e-129 9.58025e-128 9.70365e-127 9.52693e-126 9.0582e-125 8.33278e-124 7.40901e-123 6.36044e-122 5.26594e-121 4.1995e-120 3.2217e-119 2.3743e-118 1.67841e-117 1.13624e-116 7.3536e-116 4.54121e-115 2.67056e-114 1.49222e-113 7.90347e-113 3.9575e-112 1.86809e-111 8.2867e-111 3.44255e-110 1.33429e-109 4.80498e-109 1.60041e-108 4.90597e-108 1.37677e-107 3.51715e-107 8.13238e-107 1.69253e-106 3.15583e-106 5.2568e-106 7.82676e-106 1.04746e-105 1.2756e-105 1.44133e-105 1.5507e-105 1.63663e-105 1.73988e-105 1.88339e-105 2.05411e-105 2.21012e-105 2.31367e-105 2.36169e-105 2.38373e-105 2.40973e-105 2.44187e-105 2.4582e-105 2.43808e-105 2.37778e-105 2.285e-105 2.17116e-105 2.05667e-105 1.9742e-105 1.95188e-105 1.98782e-105 2.04382e-105 2.06728e-105 2.02297e-105 1.9112e-105 1.76355e-105 1.62517e-105 1.53525e-105 1.51168e-105 1.54633e-105 1.61259e-105 1.67565e-105 1.70023e-105 1.66287e-105 1.56741e-105 1.44846e-105 1.35666e-105 1.33428e-105 1.39491e-105 1.51952e-105 1.67246e-105 1.82529e-105 1.96786e-105 2.0982e-105 2.20689e-105 2.27456e-105 2.28233e-105 2.22147e-105 2.0943e-105 1.91196e-105 1.69655e-105 1.48325e-105 1.31342e-105 1.22078e-105 1.2207e-105 1.30513e-105 1.44039e-105 1.57395e-105 1.65603e-105 1.6653e-105 1.62059e-105 1.5688e-105 1.55283e-105 1.57978e-105 1.61759e-105 1.62644e-105 1.59536e-105 1.54695e-105 1.5085e-105 1.48429e-105 1.45726e-105 1.41146e-105 1.34895e-105 1.28991e-105 1.26182e-105 1.28587e-105 1.36881e-105 1.50206e-105 1.65947e-105 1.79503e-105 1.85915e-105 1.83331e-105 1.75188e-105 1.68463e-105 1.68981e-105 1.77595e-105 1.90586e-105 2.0375e-105 2.15944e-105 2.28657e-105 2.42764e-105 2.56363e-105 2.65658e-105 2.6725e-105 2.59431e-105 2.42059e-105 2.15915e-105 1.82365e-105 1.43782e-105 1.04153e-105 6.84142e-106 4.04332e-106 2.14452e-106 1.0221e-106 4.39358e-107 1.71171e-107 6.07634e-108 1.97599e-108 5.91683e-109 1.63927e-109 4.2209e-110 1.01421e-110 2.28265e-111 4.82864e-112 9.63018e-113 1.81596e-113 3.24617e-114 5.51403e-115 8.91979e-116 1.37691e-116 2.03207e-117 2.87211e-118 3.89397e-119 5.0718e-120 6.35497e-121 7.67026e-122 8.92855e-123 1.00351e-123 1.09016e-124 1.14586e-125 1.16641e-126 1.1509e-127 1.10169e-128 1.02391e-129 9.24646e-131 8.11912e-132 6.93682e-133 5.77045e-134 4.67656e-135 3.69458e-136 2.84689e-137 2.14079e-138 1.57181e-139 1.12735e-140 7.90235e-142 5.41611e-143 3.63112e-144 2.3823e-145 1.53012e-146 9.6249e-148 5.93155e-149 3.58254e-150 2.1144e-151 0 
0 2.10904e-212 6.90932e-211 2.23558e-209 7.14982e-208 2.26e-206 7.05963e-205 2.17907e-203 6.64547e-202 2.00216e-200 5.95857e-199 1.75146e-197 5.08425e-196 1.45735e-194 4.12438e-193 1.15227e-191 3.17759e-190 8.64822e-189 2.32264e-187 6.15465e-186 1.60889e-184 4.14848e-183 1.05493e-181 2.64523e-180 6.53941e-179 1.5936e-177 3.82745e-176 9.05851e-175 2.11224e-173 4.85166e-172 1.09753e-170 2.44476e-169 5.36126e-168 1.15723e-166 2.45809e-165 5.13706e-164 1.05601e-162 2.13484e-161 4.24322e-160 8.29007e-159 1.59163e-157 3.00216e-156 5.56184e-155 1.01175e-153 1.80666e-152 3.1659e-151 5.44253e-150 9.17595e-149 1.51671e-147 2.45703e-146 3.89957e-145 6.06124e-144 9.22315e-143 1.3734e-141 2.00048e-140 2.84906e-139 3.96557e-138 5.39189e-137 7.15806e-136 9.27354e-135 1.17181e-133 1.44341e-132 1.73215e-131 2.02383e-130 2.30079e-129 2.54329e-128 2.73161e-127 2.84852e-126 2.88169e-125 2.82577e-124 2.68349e-123 2.46561e-122 2.18964e-121 1.8775e-120 1.55257e-119 1.23668e-118 9.47622e-118 6.97552e-117 4.92529e-116 3.33045e-115 2.15295e-114 1.32804e-113 7.80102e-113 4.35408e-112 2.30357e-111 1.15221e-110 5.433e-110 2.4075e-109 9.9911e-109 3.86851e-108 1.39173e-107 4.63109e-107 1.41834e-106 3.97685e-106 1.01513e-105 2.34546e-105 4.87827e-105 9.0909e-105 1.51367e-104 2.25305e-104 3.01484e-104 3.67142e-104 4.14874e-104 4.46419e-104 4.71223e-104 5.00993e-104 5.42305e-104 5.91407e-104 6.36268e-104 6.66051e-104 6.79883e-104 6.86239e-104 6.93714e-104 7.02946e-104 7.07637e-104 7.01853e-104 6.84509e-104 6.57808e-104 6.25052e-104 5.92126e-104 5.68418e-104 5.61999e-104 5.72312e-104 5.88376e-104 5.9508e-104 5.82304e-104 5.50137e-104 5.07655e-104 4.6784e-104 4.4196e-104 4.35161e-104 4.45112e-104 4.64156e-104 4.82277e-104 4.89333e-104 4.78595e-104 4.51167e-104 4.17001e-104 3.90642e-104 3.84234e-104 4.01678e-104 4.37516e-104 4.81517e-104 5.25508e-104 5.6656e-104 6.04089e-104 6.3537e-104 6.54834e-104 6.57053e-104 6.39516e-104 6.02896e-104 5.50401e-104 4.88401e-104 4.27013e-104 3.78133e-104 3.51457e-104 3.51411e-104 3.7568e-104 4.14578e-104 4.53004e-104 4.76641e-104 4.79354e-104 4.66535e-104 4.51659e-104 4.47052e-104 4.54768e-104 4.65617e-104 4.68175e-104 4.59277e-104 4.45389e-104 4.34336e-104 4.27349e-104 4.19545e-104 4.0635e-104 3.88355e-104 3.71367e-104 3.6329e-104 3.70216e-104 3.9409e-104 4.32434e-104 4.77704e-104 5.16676e-104 5.35103e-104 5.27685e-104 5.04296e-104 4.84978e-104 4.86462e-104 5.11211e-104 5.48564e-104 5.86454e-104 6.21582e-104 6.58206e-104 6.98819e-104 7.37954e-104 7.64709e-104 7.69305e-104 7.46817e-104 6.96831e-104 6.21587e-104 5.25023e-104 4.13979e-104 2.9993e-104 1.97071e-104 1.16519e-104 6.18337e-105 2.94896e-105 1.26857e-105 4.94623e-106 1.75737e-106 5.72007e-107 1.71443e-107 4.75456e-108 1.22548e-108 2.94766e-109 6.64125e-110 1.40638e-110 2.80793e-111 5.30075e-112 9.48611e-113 1.61315e-113 2.61249e-114 4.03743e-115 5.96539e-116 8.44125e-117 1.14579e-117 1.49413e-118 1.87436e-119 2.26499e-120 2.6397e-121 2.9704e-122 3.23079e-123 3.39996e-124 3.46515e-125 3.42325e-126 3.28089e-127 3.053e-128 2.76041e-129 2.42686e-130 2.07603e-131 1.72911e-132 1.40307e-133 1.10984e-134 8.56269e-136 6.44702e-137 4.73949e-138 3.4036e-139 2.38884e-140 1.63934e-141 1.10046e-142 7.22908e-144 4.64908e-145 2.92816e-146 1.80686e-147 1.09271e-148 6.4574e-150 0 
0 6.76255e-211 2.21236e-209 7.14831e-208 2.28299e-206 7.20631e-205 2.24794e-203 6.92901e-202 2.11021e-200 6.34892e-199 1.88687e-197 5.53866e-196 1.60558e-194 4.59594e-193 1.2989e-191 3.62392e-190 9.97992e-189 2.71246e-187 7.27493e-186 1.92513e-184 5.02568e-183 1.2941e-181 3.28637e-180 8.22945e-179 2.03171e-177 4.94444e-176 1.18595e-174 2.80305e-173 6.52735e-172 1.49728e-170 3.38261e-169 7.5248e-168 1.64797e-166 3.55242e-165 7.53581e-164 1.5728e-162 3.22891e-161 6.51898e-160 1.29402e-158 2.52485e-157 4.84117e-156 9.11961e-155 1.68731e-153 3.0654e-152 5.46671e-151 9.56718e-150 1.64258e-148 2.76578e-147 4.56575e-146 7.38689e-145 1.17088e-143 1.81762e-142 2.76227e-141 4.10801e-140 5.9761e-139 8.50034e-138 1.18166e-136 1.60465e-135 2.1276e-134 2.75294e-133 3.4743e-132 4.27423e-131 5.12287e-130 5.97813e-129 6.78784e-128 7.49405e-127 8.0391e-126 8.37291e-125 8.4601e-124 8.28588e-123 7.85917e-122 7.21237e-121 6.39744e-120 5.47893e-119 4.52534e-118 3.60035e-117 2.75557e-116 2.02603e-115 1.42889e-114 9.65089e-114 6.23163e-113 3.8396e-112 2.25288e-111 1.25602e-110 6.63782e-110 3.31652e-109 1.56216e-108 6.91501e-108 2.86676e-107 1.10888e-106 3.98538e-106 1.3249e-105 4.05402e-105 1.13572e-104 2.8967e-104 6.68796e-104 1.39012e-103 2.58916e-103 4.30927e-103 6.41239e-103 8.57931e-103 1.04476e-102 1.18068e-102 1.27063e-102 1.34142e-102 1.42628e-102 1.54386e-102 1.68349e-102 1.81102e-102 1.89572e-102 1.9351e-102 1.95322e-102 1.97447e-102 2.00069e-102 2.01401e-102 1.99757e-102 1.94825e-102 1.87228e-102 1.7791e-102 1.68548e-102 1.61809e-102 1.59984e-102 1.6291e-102 1.67466e-102 1.6936e-102 1.65719e-102 1.56566e-102 1.44481e-102 1.33154e-102 1.2579e-102 1.23852e-102 1.26676e-102 1.32088e-102 1.37236e-102 1.39239e-102 1.36187e-102 1.28396e-102 1.18694e-102 1.11212e-102 1.09397e-102 1.1436e-102 1.2455e-102 1.37066e-102 1.49585e-102 1.61272e-102 1.71955e-102 1.80856e-102 1.86391e-102 1.87017e-102 1.82021e-102 1.71595e-102 1.56653e-102 1.3901e-102 1.21543e-102 1.07633e-102 1.00038e-102 1.00019e-102 1.06916e-102 1.17976e-102 1.28906e-102 1.35637e-102 1.36421e-102 1.32787e-102 1.28563e-102 1.27249e-102 1.29432e-102 1.3251e-102 1.33241e-102 1.30723e-102 1.26784e-102 1.23642e-102 1.21649e-102 1.19422e-102 1.15663e-102 1.10541e-102 1.05708e-102 1.03412e-102 1.05384e-102 1.12178e-102 1.23086e-102 1.35959e-102 1.47035e-102 1.52272e-102 1.50166e-102 1.43524e-102 1.38037e-102 1.38457e-102 1.45488e-102 1.56106e-102 1.66889e-102 1.76895e-102 1.87326e-102 1.98885e-102 2.1002e-102 2.17634e-102 2.18946e-102 2.12552e-102 1.98332e-102 1.76921e-102 1.49442e-102 1.17845e-102 8.5394e-103 5.61251e-103 3.31982e-103 1.76269e-103 8.41201e-104 3.62129e-104 1.4131e-104 5.02499e-105 1.63708e-105 4.91134e-106 1.36338e-106 3.51764e-107 8.4698e-108 1.91031e-108 4.04968e-109 8.09427e-110 1.5297e-110 2.74058e-111 4.66571e-112 7.56467e-113 1.17041e-113 1.73129e-114 2.45269e-115 3.33311e-116 4.3515e-117 5.46534e-118 6.61219e-119 7.7153e-120 8.69225e-121 9.46561e-122 9.97328e-123 1.01768e-123 1.0066e-124 9.65915e-126 8.99925e-127 8.14679e-128 7.1712e-129 6.14211e-130 5.12207e-131 4.16143e-132 3.29583e-133 2.54599e-134 1.91933e-135 1.41276e-136 1.01583e-137 7.1387e-139 4.90514e-140 3.29692e-141 2.16855e-142 1.39639e-143 8.80621e-145 5.44095e-146 3.29468e-147 1.94949e-148 0 
0 2.14308e-209 7.0013e-208 2.25903e-206 7.20476e-205 2.27104e-203 7.07449e-202 2.17761e-200 6.62271e-199 1.98981e-197 5.90549e-196 1.7311e-194 5.01134e-193 1.43252e-191 4.04302e-190 1.12646e-188 3.09795e-187 8.40853e-186 2.25214e-184 5.95164e-183 1.55161e-181 3.98999e-180 1.01189e-178 2.53048e-177 6.23892e-176 1.51629e-174 3.63203e-173 8.57302e-172 1.9937e-170 4.56719e-169 1.03043e-167 2.28921e-166 5.00684e-165 1.07787e-163 2.28348e-162 4.75957e-161 9.75843e-160 1.96759e-158 3.90055e-157 7.60067e-156 1.45546e-154 2.73818e-153 5.05959e-152 9.18002e-151 1.63501e-149 2.85771e-148 4.90006e-147 8.24012e-146 1.35853e-144 2.19515e-143 3.47503e-142 5.3876e-141 8.17726e-140 1.21457e-138 1.76465e-137 2.50685e-136 3.48047e-135 4.72043e-134 6.25095e-133 8.07811e-132 1.01821e-130 1.25109e-129 1.49764e-128 1.74551e-127 1.9795e-126 2.18276e-125 2.33866e-124 2.4328e-123 2.45515e-122 2.40168e-121 2.27525e-120 2.0855e-119 1.84764e-118 1.58049e-117 1.30386e-116 1.03613e-115 7.92086e-115 5.81702e-114 4.09779e-113 2.76452e-112 1.78303e-111 1.09736e-110 6.43154e-110 3.58174e-109 1.89079e-108 9.43692e-108 4.44027e-107 1.96345e-106 8.13152e-106 3.14214e-105 1.1282e-104 3.74707e-104 1.14551e-103 3.20637e-103 8.17144e-103 1.88527e-102 3.91609e-102 7.28999e-102 1.21281e-101 1.80421e-101 2.41356e-101 2.9391e-101 3.32176e-101 3.5753e-101 3.77503e-101 4.01417e-101 4.345e-101 4.73751e-101 5.09592e-101 5.33402e-101 5.44488e-101 5.49594e-101 5.55568e-101 5.62927e-101 5.66666e-101 5.62047e-101 5.48181e-101 5.26815e-101 5.00609e-101 4.74293e-101 4.55362e-101 4.50233e-101 4.58438e-101 4.71211e-101 4.76502e-101 4.6624e-101 4.40494e-101 4.06508e-101 3.74655e-101 3.53938e-101 3.48473e-101 3.564e-101 3.71601e-101 3.86062e-101 3.91685e-101 3.83109e-101 3.61231e-101 3.33993e-101 3.12996e-101 3.0792e-101 3.21876e-101 3.50522e-101 3.85713e-101 4.20934e-101 4.53826e-101 4.8389e-101 5.08927e-101 5.24486e-101 5.26233e-101 5.12163e-101 4.82819e-101 4.40775e-101 3.9114e-101 3.42005e-101 3.02873e-101 2.81499e-101 2.81425e-101 3.00803e-101 3.31892e-101 3.62629e-101 3.81575e-101 3.83815e-101 3.73635e-101 3.61774e-101 3.58067e-101 3.64178e-101 3.72811e-101 3.74877e-101 3.6783e-101 3.56787e-101 3.4796e-101 3.4234e-101 3.36054e-101 3.25468e-101 3.11057e-101 2.97463e-101 2.91006e-101 2.96558e-101 3.15671e-101 3.46348e-101 3.82533e-101 4.13657e-101 4.28368e-101 4.2246e-101 4.03813e-101 3.88406e-101 3.89582e-101 4.09325e-101 4.39167e-101 4.69503e-101 4.97677e-101 5.27045e-101 5.5957e-101 5.90891e-101 6.12311e-101 6.16011e-101 5.9804e-101 5.58048e-101 4.97819e-101 4.20517e-101 3.31633e-101 2.40353e-101 1.58018e-101 9.35073e-102 4.96755e-102 2.37216e-102 1.02193e-102 3.99099e-103 1.42042e-103 4.63173e-104 1.39087e-104 3.86481e-105 9.98158e-106 2.40585e-106 5.43195e-107 1.15276e-107 2.30656e-108 4.36387e-109 7.82688e-110 1.33399e-110 2.16529e-111 3.35396e-112 4.96696e-113 7.04473e-114 9.58466e-115 1.25278e-115 1.5753e-116 1.90812e-117 2.2291e-118 2.51436e-119 2.74135e-120 2.89186e-121 2.95444e-122 2.92581e-123 2.81098e-124 2.62214e-125 2.37667e-126 2.09463e-127 1.79626e-128 1.4998e-129 1.22003e-130 9.67461e-132 7.48285e-133 5.64812e-134 4.16261e-135 2.99686e-136 2.10868e-137 1.45075e-138 9.76333e-140 6.42999e-141 4.14573e-142 2.6178e-143 1.61949e-144 9.81912e-146 5.81748e-147 0 
0 6.71158e-208 2.18958e-206 7.05505e-205 2.24696e-203 7.07292e-202 2.20023e-200 6.76322e-199 2.05404e-197 6.16292e-196 1.82657e-194 5.34693e-193 1.54576e-191 4.4126e-190 1.24368e-188 3.4604e-187 9.5037e-186 2.57602e-184 6.89024e-183 1.8184e-181 4.73423e-180 1.21577e-178 3.07913e-177 7.68977e-176 1.89338e-174 4.59545e-173 1.09929e-171 2.59131e-170 6.01821e-169 1.37682e-167 3.10221e-166 6.88276e-165 1.50337e-163 3.23217e-162 6.8384e-161 1.42349e-159 2.91471e-158 5.86922e-157 1.162e-155 2.26133e-154 4.32462e-153 8.12537e-152 1.49946e-150 2.71706e-149 4.83299e-148 8.43632e-147 1.4447e-145 2.42634e-144 3.99515e-143 6.4472e-142 1.01933e-140 1.57833e-139 2.39253e-138 3.54913e-137 5.15003e-136 7.3069e-135 1.0132e-133 1.37245e-132 1.81517e-131 2.34282e-130 2.94937e-129 3.61944e-128 4.32735e-127 5.03735e-126 5.70559e-125 6.28377e-124 6.72435e-123 6.98653e-122 7.04218e-121 6.8805e-120 6.51047e-119 5.96035e-118 5.27428e-117 4.5063e-116 3.71321e-115 2.94728e-114 2.25046e-113 1.6508e-112 1.16156e-111 7.82735e-111 5.04266e-110 3.1e-109 1.81485e-108 1.00957e-107 5.32369e-107 2.65418e-106 1.24752e-105 5.51065e-105 2.27986e-104 8.8009e-104 3.15693e-103 1.04752e-102 3.19947e-102 8.94788e-102 2.27856e-101 5.25315e-101 1.09049e-100 2.02892e-100 3.37405e-100 5.01797e-100 6.7118e-100 8.17314e-100 9.23798e-100 9.94446e-100 1.05015e-99 1.11676e-99 1.20877e-99 1.31784e-99 1.4174e-99 1.48357e-99 1.51441e-99 1.52863e-99 1.54523e-99 1.56565e-99 1.57603e-99 1.5632e-99 1.52466e-99 1.46526e-99 1.39242e-99 1.3193e-99 1.26672e-99 1.25247e-99 1.27522e-99 1.31062e-99 1.32523e-99 1.29664e-99 1.22505e-99 1.13058e-99 1.04203e-99 9.8442e-100 9.69189e-100 9.91179e-100 1.03339e-99 1.07354e-99 1.08914e-99 1.06532e-99 1.00459e-99 9.2901e-100 8.70767e-100 8.56727e-100 8.95523e-100 9.75122e-100 1.07294e-99 1.17088e-99 1.26239e-99 1.34602e-99 1.41563e-99 1.45887e-99 1.46368e-99 1.42451e-99 1.34287e-99 1.22593e-99 1.08791e-99 9.51281e-100 8.42462e-100 7.82996e-100 7.82739e-100 8.36556e-100 9.22939e-100 1.00838e-99 1.0611e-99 1.06742e-99 1.03923e-99 1.00631e-99 9.95977e-100 1.01288e-99 1.03681e-99 1.04258e-99 1.0231e-99 9.92495e-100 9.6798e-100 9.52315e-100 9.34783e-100 9.05311e-100 8.65227e-100 8.27429e-100 8.09483e-100 8.24928e-100 8.78077e-100 9.63355e-100 1.0639e-99 1.15035e-99 1.1912e-99 1.17481e-99 1.12307e-99 1.0803e-99 1.08355e-99 1.13836e-99 1.22126e-99 1.30562e-99 1.38404e-99 1.46578e-99 1.55624e-99 1.64332e-99 1.70289e-99 1.71321e-99 1.66328e-99 1.5521e-99 1.38463e-99 1.16967e-99 9.22522e-100 6.6872e-100 4.39771e-100 2.60344e-100 1.38381e-100 6.61233e-101 2.85069e-101 1.11417e-101 3.9688e-102 1.29533e-102 3.89342e-103 1.08292e-103 2.79966e-104 6.75493e-105 1.52673e-105 3.24345e-106 6.49686e-107 1.23051e-107 2.20945e-108 3.76992e-109 6.12613e-110 9.49998e-111 1.40849e-111 1.99999e-112 2.72423e-113 3.56492e-114 4.48796e-115 5.44256e-116 6.36563e-117 7.18881e-118 7.84717e-119 8.28795e-120 8.47752e-121 8.40554e-122 8.08546e-123 7.55148e-124 6.85292e-125 6.04711e-126 5.1921e-127 4.34054e-128 3.53523e-129 2.80685e-130 2.17367e-131 1.64275e-132 1.21221e-133 8.73825e-135 6.15622e-136 4.24075e-137 2.85758e-138 1.88435e-139 1.21648e-140 7.69116e-142 4.76416e-143 2.89226e-144 1.71574e-145 0 
0 2.07692e-206 6.76633e-205 2.17716e-203 6.92441e-202 2.17664e-200 6.76169e-199 2.07559e-197 6.29507e-196 1.88617e-194 5.58256e-193 1.63195e-191 4.71141e-190 1.34311e-188 3.78035e-187 1.05041e-185 2.88095e-184 7.79836e-183 2.08306e-181 5.48995e-180 1.42739e-178 3.66066e-177 9.25877e-176 2.30917e-174 5.67803e-173 1.37628e-171 3.28787e-170 7.74e-169 1.79519e-167 4.10153e-166 9.22917e-165 2.04494e-163 4.46077e-162 9.57779e-161 2.02374e-159 4.20711e-158 8.60313e-157 1.73011e-155 3.42083e-154 6.64851e-153 1.26982e-151 2.38273e-150 4.39141e-149 7.94709e-148 1.41177e-146 2.46118e-145 4.2093e-144 7.06038e-143 1.16106e-141 1.87128e-140 2.95479e-139 4.5694e-138 6.91784e-137 1.02491e-135 1.48534e-134 2.10476e-133 2.91489e-132 3.94346e-131 5.20904e-130 6.7149e-129 8.44287e-128 1.03482e-126 1.23569e-125 1.43667e-124 1.62526e-123 1.78777e-122 1.91079e-121 1.98288e-120 1.99626e-119 1.94808e-118 1.84111e-117 1.68353e-116 1.48797e-115 1.26981e-114 1.04509e-113 8.28548e-113 6.3192e-112 4.63002e-111 3.25409e-110 2.19031e-109 1.40948e-108 8.6551e-108 5.06135e-107 2.81245e-106 1.48145e-105 7.37794e-105 3.4641e-104 1.5286e-103 6.31765e-103 2.43636e-102 8.73088e-102 2.89432e-101 8.8323e-101 2.46801e-100 6.27976e-100 1.44674e-99 3.00136e-99 5.58123e-99 9.27767e-99 1.37942e-98 1.84479e-98 2.24642e-98 2.53931e-98 2.73388e-98 2.88742e-98 3.07081e-98 3.32373e-98 3.62327e-98 3.89664e-98 4.07835e-98 4.16316e-98 4.20232e-98 4.24788e-98 4.30389e-98 4.33234e-98 4.29712e-98 4.19129e-98 4.02807e-98 3.82793e-98 3.62714e-98 3.48283e-98 3.4437e-98 3.50603e-98 3.603e-98 3.64286e-98 3.56416e-98 3.36742e-98 3.10784e-98 2.86453e-98 2.7062e-98 2.66425e-98 2.72453e-98 2.84037e-98 2.95056e-98 2.99334e-98 2.92797e-98 2.76136e-98 2.55406e-98 2.39439e-98 2.356e-98 2.46261e-98 2.68121e-98 2.94993e-98 3.21915e-98 3.47075e-98 3.70068e-98 3.892e-98 4.01074e-98 4.02386e-98 3.91608e-98 3.69158e-98 3.3701e-98 2.99073e-98 2.61524e-98 2.31615e-98 2.15263e-98 2.15178e-98 2.2995e-98 2.53674e-98 2.77148e-98 2.91647e-98 2.93413e-98 2.85695e-98 2.76665e-98 2.73817e-98 2.78437e-98 2.84997e-98 2.8659e-98 2.81264e-98 2.72882e-98 2.66154e-98 2.61839e-98 2.57005e-98 2.48895e-98 2.37875e-98 2.27487e-98 2.22556e-98 2.26803e-98 2.4141e-98 2.64841e-98 2.92454e-98 3.16186e-98 3.274e-98 3.22907e-98 3.08713e-98 2.96981e-98 2.9787e-98 3.12907e-98 3.35671e-98 3.58858e-98 3.80431e-98 4.02914e-98 4.27783e-98 4.51714e-98 4.68085e-98 4.7093e-98 4.57219e-98 4.26672e-98 3.80647e-98 3.21567e-98 2.53642e-98 1.83892e-98 1.20968e-98 7.16428e-99 3.81007e-99 1.82175e-99 7.85952e-100 3.07428e-100 1.09603e-100 3.5804e-101 1.07719e-101 2.99902e-102 7.76106e-103 1.87448e-103 4.24108e-104 9.01951e-105 1.80862e-105 3.42929e-106 6.16426e-107 1.05296e-107 1.71299e-108 2.65941e-109 3.9474e-110 5.61159e-111 7.65253e-112 1.00257e-112 1.26364e-113 1.53423e-114 1.79656e-115 2.03129e-116 2.21997e-117 2.34747e-118 2.40406e-119 2.38653e-120 2.29843e-121 2.14925e-122 1.95281e-123 1.7253e-124 1.48318e-125 1.24145e-126 1.01237e-127 8.04782e-129 6.2401e-130 4.72184e-131 3.48867e-132 2.51796e-133 1.77617e-134 1.22507e-135 8.26538e-137 5.45726e-138 3.5275e-139 2.2331e-140 1.38502e-141 8.41899e-143 5.00065e-144 0 
0 6.35007e-205 2.0659e-203 6.63812e-202 2.10832e-200 6.61821e-199 2.0531e-197 6.29361e-196 1.90617e-194 5.70355e-193 1.68579e-191 4.92134e-190 1.41884e-188 4.03926e-187 1.13536e-185 3.15043e-184 8.62894e-183 2.33258e-181 6.22225e-180 1.63768e-178 4.25225e-177 1.08906e-175 2.75082e-174 6.85145e-173 1.68246e-171 4.07263e-170 9.71632e-169 2.28429e-167 5.29108e-166 1.20727e-164 2.71298e-163 6.00329e-162 1.30782e-160 2.80434e-159 5.91766e-158 1.2286e-156 2.50908e-155 5.03923e-154 9.95077e-153 1.93146e-151 3.68417e-150 6.90414e-149 1.2708e-147 2.29679e-146 4.07492e-145 7.09479e-144 1.21185e-142 2.03008e-141 3.33414e-140 5.3668e-139 8.46355e-138 1.30718e-136 1.9765e-135 2.92459e-134 4.2331e-133 5.99089e-132 8.28641e-131 1.11964e-129 1.47713e-128 1.90179e-127 2.38822e-126 2.92358e-125 3.48678e-124 4.04891e-123 4.57481e-122 5.02612e-121 5.36546e-120 5.56116e-119 5.59193e-118 5.45042e-117 5.14496e-116 4.699e-115 4.14825e-114 3.53587e-113 2.90672e-112 2.30175e-111 1.75347e-110 1.28327e-109 9.00878e-109 6.05685e-108 3.89321e-107 2.388e-106 1.39491e-105 7.74261e-105 4.07396e-104 2.02675e-103 9.50595e-103 4.19033e-102 1.73008e-101 6.66531e-101 2.38626e-100 7.90316e-100 2.40957e-99 6.72738e-99 1.71041e-98 3.93764e-98 8.16375e-98 1.51731e-97 2.52119e-97 3.74752e-97 5.01115e-97 6.10206e-97 6.89819e-97 7.42778e-97 7.84603e-97 8.34499e-97 9.03207e-97 9.84508e-97 1.05868e-96 1.108e-96 1.13105e-96 1.1417e-96 1.15406e-96 1.16924e-96 1.17695e-96 1.1674e-96 1.13867e-96 1.09435e-96 1.04001e-96 9.85518e-97 9.46371e-97 9.35757e-97 9.52636e-97 9.78887e-97 9.89635e-97 9.68222e-97 9.14784e-97 8.44298e-97 7.78229e-97 7.35222e-97 7.23803e-97 7.40138e-97 7.71555e-97 8.01441e-97 8.13035e-97 7.95301e-97 7.5013e-97 6.93942e-97 6.50681e-97 6.40313e-97 6.69261e-97 7.28596e-97 8.01551e-97 8.74683e-97 9.43051e-97 1.00552e-96 1.05749e-96 1.08971e-96 1.09324e-96 1.06394e-96 1.00292e-96 9.15583e-97 8.12535e-97 7.10551e-97 6.29307e-97 5.84869e-97 5.84599e-97 6.24673e-97 6.89061e-97 7.528e-97 7.92213e-97 7.97082e-97 7.76201e-97 7.5172e-97 7.43966e-97 7.56445e-97 7.74213e-97 7.7856e-97 7.64177e-97 7.4149e-97 7.23239e-97 7.11492e-97 6.98323e-97 6.76268e-97 6.46323e-97 6.18107e-97 6.04717e-97 6.16253e-97 6.55927e-97 7.19549e-97 7.94497e-97 8.58883e-97 8.89302e-97 8.77129e-97 8.38655e-97 8.06847e-97 8.09249e-97 8.50022e-97 9.11793e-97 9.74778e-97 1.03343e-96 1.09455e-96 1.16211e-96 1.2271e-96 1.27157e-96 1.27932e-96 1.24211e-96 1.15917e-96 1.03416e-96 8.73688e-97 6.89197e-97 4.9976e-97 3.28848e-97 1.94839e-97 1.03673e-97 4.96016e-98 2.14149e-98 8.38316e-99 2.99125e-99 9.7803e-100 2.94523e-100 8.20782e-101 2.12619e-101 5.1405e-102 1.16427e-102 2.47867e-103 4.97565e-104 9.44448e-105 1.69955e-105 2.90635e-106 4.73345e-107 7.35695e-108 1.09325e-108 1.55594e-109 2.12428e-110 2.7863e-111 3.51594e-112 4.27383e-113 5.0105e-114 5.67188e-115 6.2061e-116 6.5704e-117 6.73685e-118 6.69578e-119 6.45641e-120 6.04468e-121 5.4989e-122 4.86417e-123 4.18668e-124 3.50864e-125 2.86474e-126 2.28014e-127 1.77016e-128 1.34113e-129 9.92115e-131 7.16958e-132 5.06376e-133 3.49698e-134 2.36235e-135 1.56172e-136 1.01075e-137 6.40673e-139 3.97866e-140 2.42155e-141 1.44016e-142 0 
0 1.91801e-203 6.23134e-202 1.99947e-200 6.34173e-199 1.98798e-197 6.15863e-196 1.88528e-194 5.70219e-193 1.70385e-191 5.02916e-190 1.46616e-188 4.22125e-187 1.2001e-185 3.36867e-184 9.33485e-183 2.55333e-181 6.89285e-180 1.83622e-178 4.82637e-177 1.25149e-175 3.20093e-174 8.0743e-173 2.00837e-171 4.92523e-170 1.19063e-168 2.83679e-167 6.6604e-166 1.5407e-164 3.51077e-163 7.87901e-162 1.74118e-160 3.78817e-159 8.11227e-158 1.70959e-156 3.54474e-155 7.22973e-154 1.45013e-152 2.85978e-151 5.54367e-150 1.05606e-148 1.97651e-147 3.63334e-146 6.5583e-145 1.16206e-143 2.02066e-142 3.44706e-141 5.76711e-140 9.45968e-139 1.52074e-137 2.3952e-136 3.69467e-135 5.57943e-134 8.24539e-133 1.19196e-131 1.6848e-130 2.32745e-129 3.1409e-128 4.13861e-127 5.3218e-126 6.67475e-125 8.16093e-124 9.72114e-123 1.12745e-121 1.27234e-120 1.39616e-119 1.48862e-118 1.54105e-117 1.54772e-116 1.50675e-115 1.4206e-114 1.29593e-113 1.14269e-112 9.7285e-112 7.98811e-111 6.3182e-110 4.80762e-109 3.51438e-108 2.46434e-107 1.65497e-106 1.06258e-105 6.51031e-105 3.79868e-104 2.10619e-103 1.10702e-102 5.50142e-102 2.57759e-101 1.13505e-100 4.6816e-100 1.80185e-99 6.44462e-99 2.13244e-98 6.49576e-98 1.81205e-97 4.60345e-97 1.05903e-96 2.19428e-96 4.07613e-96 6.77026e-96 1.00607e-95 1.34512e-95 1.63793e-95 1.85179e-95 1.99422e-95 2.10681e-95 2.24096e-95 2.42539e-95 2.64344e-95 2.84232e-95 2.97459e-95 3.03647e-95 3.06511e-95 3.09826e-95 3.13891e-95 3.15956e-95 3.13395e-95 3.0569e-95 2.93797e-95 2.79217e-95 2.64604e-95 2.54111e-95 2.51265e-95 2.55783e-95 2.62805e-95 2.65668e-95 2.59911e-95 2.45569e-95 2.26656e-95 2.08927e-95 1.97383e-95 1.94311e-95 1.98685e-95 2.07105e-95 2.15115e-95 2.1822e-95 2.13466e-95 2.01365e-95 1.86316e-95 1.74734e-95 1.71967e-95 1.79735e-95 1.95649e-95 2.15221e-95 2.34852e-95 2.5321e-95 2.69983e-95 2.83929e-95 2.92572e-95 2.93511e-95 2.85635e-95 2.69251e-95 2.45802e-95 2.18142e-95 1.9077e-95 1.68963e-95 1.57029e-95 1.56946e-95 1.67689e-95 1.84958e-95 2.0206e-95 2.12647e-95 2.13973e-95 2.08391e-95 2.01833e-95 1.99746e-95 2.03077e-95 2.07833e-95 2.09005e-95 2.05167e-95 1.991e-95 1.94208e-95 1.91048e-95 1.87502e-95 1.81575e-95 1.73534e-95 1.6596e-95 1.62367e-95 1.65463e-95 1.76111e-95 1.93182e-95 2.13283e-95 2.30545e-95 2.38699e-95 2.3544e-95 2.25135e-95 2.16612e-95 2.17254e-95 2.28179e-95 2.44742e-95 2.61649e-95 2.77406e-95 2.93824e-95 3.11962e-95 3.29403e-95 3.41339e-95 3.43426e-95 3.33448e-95 3.11192e-95 2.77642e-95 2.3457e-95 1.85054e-95 1.34212e-95 8.83383e-96 5.23609e-96 2.78758e-96 1.33454e-96 5.76585e-97 2.25889e-97 8.06692e-98 2.63994e-98 7.9573e-99 2.2197e-99 5.75571e-100 1.39298e-100 3.15821e-101 6.73078e-102 1.35257e-102 2.57016e-103 4.63011e-104 7.92663e-105 1.29242e-105 2.011e-106 2.99176e-107 4.26282e-108 5.82662e-109 7.65131e-110 9.66619e-111 1.17636e-111 1.38075e-112 1.56485e-113 1.71427e-114 1.81707e-115 1.86533e-116 1.85619e-117 1.79199e-118 1.67974e-119 1.52993e-120 1.35499e-121 1.16769e-122 9.7978e-124 8.00954e-125 6.38293e-126 4.96145e-127 3.76363e-128 2.78764e-129 2.01702e-130 1.42637e-131 9.86272e-133 6.67103e-134 4.4157e-135 2.86147e-136 1.81606e-137 1.12923e-138 6.88161e-140 4.09786e-141 0 