# vtk DataFile Version 3.0
Gray-Scott Simulation Output
ASCII
DATASET STRUCTURED_POINTS
DIMENSIONS 256 256 1
SPACING 1.0 1.0 1.0
ORIGIN 0 0 0
POINT_DATA 65536
SCALARS u double
LOOKUP_TABLE default
0 0 0 0 0 0 0 0 0 0 0 0 0 0 0 0 0 0 0 0 0 0 0 0 0 0 0 0 0 0 0 0 0 0 0 0 0 0 0 0 0 0 0 0 0 0 0 0 0 0 0 0 0 0 0 0 0 0 0 0 0 0 0 0 0 0 0 0 0 0 0 0 0 0 0 0 0 0 0 0 0 0 0 0 0 0 0 0 0 0 0 0 0 0 0 0 0 0 0 0 0 0 0 0 0 0 0 0 0 0 0 0 0 0 0 0 0 0 0 0 0 0 0 0 0 0 0 0 0 0 0 0 0 0 0 0 0 0 0 0 0 0 0 0 0 0 0 0 0 0 0 0 0 0 0 0 0 0 0 0 0 0 0 0 0 0 0 0 0 0 0 0 0 0 0 0 0 0 0 0 0 0 0 0 0 0 0 0 0 0 0 0 0 0 0 0 0 0 0 0 0 0 0 0 0 0 0 0 0 0 0 0 0 0 0 0 0 0 0 0 0 0 0 0 0 0 0 0 0 0 0 0 0 0 0 0 0 0 0 0 0 0 0 0 0 0 0 0 0 0 0 0 0 0 0 0 
0 2.04878e-84 8.58313e-84 3.36655e-83 1.30432e-82 5.00753e-82 1.90529e-81 7.18412e-81 2.6843e-80 9.93808e-80 3.6455e-79 1.32484e-78 4.76969e-78 1.701e-77 6.00858e-77 2.10214e-76 7.2835e-76 2.49903e-75 8.49028e-75 2.85599e-74 9.51127e-74 3.13568e-73 1.0233e-72 3.30528e-72 1.05661e-71 3.34259e-71 1.04634e-70 3.24077e-70 9.93038e-70 3.01014e-69 9.02542e-69 2.67651e-68 7.8496e-68 2.27646e-67 6.52775e-67 1.85061e-66 5.1864e-66 1.43673e-65 3.93362e-65 1.06433e-64 2.8456e-64 7.51692e-64 1.96168e-63 5.05691e-63 1.28755e-62 3.23753e-62 8.03865e-62 1.9707e-61 4.76953e-61 1.13945e-60 2.68672e-60 6.25184e-60 1.43548e-59 3.25187e-59 7.26714e-59 1.60189e-58 3.48243e-58 7.46551e-58 1.578e-57 3.28828e-57 6.75442e-57 1.36744e-56 2.7282e-56 5.36332e-56 1.03878e-55 1.98196e-55 3.72468e-55 6.89375e-55 1.25643e-54 2.25471e-54 3.98346e-54 6.92783e-54 1.18592e-53 1.99799e-53 3.31258e-53 5.40427e-53 8.67498e-53 1.37003e-52 2.1286e-52 3.25339e-52 4.89149e-52 7.23428e-52 1.05243e-51 1.50605e-51 2.12003e-51 2.93577e-51 3.99952e-51 5.36092e-51 7.0708e-51 9.17827e-51 1.17272e-50 1.47524e-50 1.82758e-50 2.2303e-50 2.68203e-50 3.1794e-50 3.71694e-50 4.28732e-50 4.88161e-50 5.48975e-50 6.10104e-50 6.70473e-50 7.29051e-50 7.84904e-50 8.37227e-50 8.85369e-50 9.28845e-50 9.67336e-50 1.00068e-49 1.02885e-49 1.05193e-49 1.07014e-49 1.08372e-49 1.09302e-49 1.0984e-49 1.10025e-49 1.09899e-49 1.09501e-49 1.08873e-49 1.08052e-49 1.07076e-49 1.05979e-49 1.04794e-49 1.03552e-49 1.02282e-49 1.01012e-49 9.97687e-50 9.85783e-50 9.74653e-50 9.64534e-50 9.55645e-50 9.48185e-50 9.42322e-50 9.38192e-50 9.35878e-50 9.3541e-50 9.36745e-50 9.39763e-50 9.44255e-50 9.49927e-50 9.56401e-50 9.63227e-50 9.69915e-50 9.75955e-50 9.80862e-50 9.84215e-50 9.85692e-50 9.85101e-50 9.82403e-50 9.77715e-50 9.71299e-50 9.63537e-50 9.54894e-50 9.45871e-50 9.36956e-50 9.28582e-50 9.21087e-50 9.14692e-50 9.09493e-50 9.05463e-50 9.0247e-50 9.00303e-50 8.98709e-50 8.97421e-50 8.96196e-50 8.94838e-50 8.93219e-50 8.91295e-50 8.89103e-50 8.86762e-50 8.84459e-50 8.82432e-50 8.80953e-50 8.80303e-50 8.80751e-50 8.82533e-50 8.85838e-50 8.90795e-50 8.97462e-50 9.05829e-50 9.15808e-50 9.27237e-50 9.39877e-50 9.53407e-50 9.67421e-50 9.81414e-50 9.94784e-50 1.00683e-49 1.01674e-49 1.02363e-49 1.02658e-49 1.02463e-49 1.01689e-49 1.00257e-49 9.81077e-50 9.52031e-50 9.15366e-50 8.71341e-50 8.20553e-50 7.63923e-50 7.02653e-50 6.38157e-50 5.7198e-50 5.05702e-50 4.40842e-50 3.78775e-50 3.20659e-50 2.67387e-50 2.19563e-50 1.77501e-50 1.41248e-50 1.10619e-50 8.52484e-51 6.46401e-51 4.82212e-51 3.53886e-51 2.55481e-51 1.8143e-51 1.26739e-51 8.70882e-52 5.88661e-52 3.91417e-52 2.56035e-52 1.64765e-52 1.04319e-52 6.49867e-53 3.98364e-53 2.40307e-53 1.42667e-53 8.33666e-54 4.79529e-54 2.71543e-54 1.51394e-54 8.31143e-55 4.49354e-55 2.39275e-55 1.25504e-55 6.48511e-56 3.30167e-56 1.65637e-56 8.18931e-57 3.99074e-57 1.91705e-57 9.07905e-58 4.23965e-58 1.95235e-58 8.86698e-59 3.97229e-59 1.75552e-59 7.65454e-60 3.29312e-60 1.39751e-60 5.83638e-61 2.36195e-61 8.31178e-62 0 
0 8.57241e-84 3.59163e-83 1.40888e-82 5.45909e-82 2.09608e-81 7.97618e-81 3.00787e-80 1.12401e-79 4.16195e-79 1.5269e-78 5.54977e-78 1.99831e-77 7.12755e-77 2.51811e-76 8.81115e-76 3.05338e-75 1.04781e-74 3.56048e-74 1.1979e-73 3.99007e-73 1.3157e-72 4.29445e-72 1.3874e-71 4.43604e-71 1.40363e-70 4.39479e-70 1.36147e-69 4.17276e-69 1.26515e-68 3.79426e-68 1.12547e-67 3.30157e-67 9.57729e-67 2.747e-66 7.78976e-66 2.1837e-65 6.05092e-65 1.65715e-64 4.48506e-64 1.19948e-63 3.1695e-63 8.27388e-63 2.13354e-62 5.43396e-62 1.3668e-61 3.3948e-61 8.32519e-61 2.01555e-60 4.81678e-60 1.13614e-59 2.64465e-59 6.07445e-59 1.37656e-58 3.07737e-58 6.78581e-58 1.47573e-57 3.16475e-57 6.69181e-57 1.39496e-56 2.8664e-56 5.80516e-56 1.15861e-55 2.27849e-55 4.4146e-55 8.42585e-55 1.58401e-54 2.93273e-54 5.34689e-54 9.59831e-54 1.6963e-53 2.95103e-53 5.05316e-53 8.51581e-53 1.41228e-52 2.30464e-52 3.70036e-52 5.8453e-52 9.08373e-52 1.38865e-51 2.08821e-51 3.08885e-51 4.49422e-51 6.43204e-51 9.05503e-51 1.254e-50 1.70843e-50 2.28998e-50 3.02032e-50 3.92033e-50 5.00866e-50 6.30004e-50 7.80364e-50 9.52161e-50 1.14479e-49 1.35679e-49 1.58579e-49 1.82864e-49 2.08152e-49 2.34011e-49 2.59985e-49 2.85616e-49 3.10467e-49 3.34141e-49 3.56299e-49 3.76667e-49 3.95045e-49 4.11299e-49 4.25364e-49 4.37235e-49 4.46953e-49 4.54605e-49 4.60305e-49 4.64195e-49 4.66432e-49 4.67182e-49 4.66619e-49 4.64915e-49 4.62238e-49 4.58752e-49 4.54612e-49 4.49964e-49 4.44947e-49 4.3969e-49 4.34316e-49 4.28943e-49 4.23685e-49 4.1865e-49 4.13943e-49 4.09663e-49 4.05904e-49 4.0275e-49 4.00271e-49 3.98526e-49 3.97549e-49 3.97354e-49 3.97922e-49 3.99202e-49 4.01108e-49 4.03513e-49 4.06257e-49 4.09152e-49 4.11988e-49 4.14549e-49 4.16632e-49 4.18055e-49 4.18684e-49 4.18436e-49 4.17297e-49 4.15314e-49 4.12599e-49 4.09315e-49 4.05658e-49 4.01841e-49 3.9807e-49 3.9453e-49 3.91362e-49 3.88662e-49 3.86469e-49 3.8477e-49 3.8351e-49 3.82599e-49 3.8193e-49 3.81389e-49 3.80873e-49 3.80298e-49 3.79612e-49 3.78795e-49 3.77864e-49 3.76868e-49 3.75887e-49 3.75024e-49 3.74392e-49 3.74112e-49 3.74297e-49 3.75048e-49 3.76446e-49 3.78543e-49 3.81366e-49 3.8491e-49 3.89138e-49 3.93983e-49 3.99342e-49 4.05082e-49 4.1103e-49 4.16974e-49 4.2266e-49 4.2779e-49 4.32022e-49 4.34983e-49 4.36276e-49 4.35499e-49 4.32269e-49 4.26251e-49 4.17184e-49 4.0491e-49 3.89395e-49 3.70745e-49 3.49211e-49 3.25181e-49 2.99164e-49 2.71761e-49 2.43629e-49 2.1544e-49 1.87843e-49 1.61423e-49 1.36676e-49 1.13984e-49 9.36079e-50 7.56823e-50 6.0229e-50 4.71711e-50 3.63534e-50 2.75653e-50 2.05633e-50 1.50904e-50 1.08936e-50 7.73548e-51 5.40312e-51 3.7123e-51 2.50893e-51 1.668e-51 1.09089e-51 7.01884e-52 4.44299e-52 2.76721e-52 1.69589e-52 1.02277e-52 6.07052e-53 3.54633e-53 2.03931e-53 1.15447e-53 6.4347e-54 3.53156e-54 1.90874e-54 1.01607e-54 5.32779e-55 2.75214e-55 1.40071e-55 7.02479e-56 3.47202e-56 1.69141e-56 8.12245e-57 3.8455e-57 1.79516e-57 8.26398e-58 3.75205e-58 1.68033e-58 7.42372e-59 3.23593e-59 1.39172e-59 5.90426e-60 2.46504e-60 9.97312e-61 3.50881e-61 0 
0 3.3576e-83 1.40689e-82 5.51944e-82 2.13892e-81 8.21366e-81 3.12595e-80 1.17898e-79 4.40634e-79 1.63181e-78 5.98753e-78 2.17662e-77 7.83864e-77 2.79635e-76 9.88101e-76 3.4581e-75 1.19858e-74 4.11389e-74 1.39818e-73 4.70502e-73 1.56752e-72 5.16989e-72 1.68783e-71 5.45407e-71 1.74428e-70 5.52051e-70 1.7289e-69 5.35734e-69 1.64239e-68 4.98094e-68 1.49422e-67 4.43344e-67 1.30092e-66 3.77485e-66 1.08304e-65 3.07214e-65 8.6148e-65 2.38787e-64 6.54172e-64 1.7711e-63 4.7382e-63 1.25244e-62 3.2706e-62 8.43671e-62 2.14953e-61 5.40868e-61 1.34388e-60 3.2969e-60 7.9849e-60 1.90898e-59 4.50451e-59 1.04895e-58 2.41027e-58 5.46423e-58 1.22205e-57 2.6958e-57 5.86504e-57 1.25829e-56 2.66173e-56 5.55088e-56 1.14108e-55 2.31192e-55 4.61609e-55 9.08161e-55 1.76028e-54 3.36108e-54 6.32115e-54 1.17079e-53 2.13538e-53 3.83471e-53 6.77952e-53 1.17985e-52 2.02099e-52 3.407e-52 5.65202e-52 9.22615e-52 1.48178e-51 2.34134e-51 3.6394e-51 5.5649e-51 8.37006e-51 1.23831e-50 1.802e-50 2.57932e-50 3.63154e-50 5.02954e-50 6.85247e-50 9.18514e-50 1.21142e-49 1.57232e-49 2.00864e-49 2.52621e-49 3.12863e-49 3.81666e-49 4.58779e-49 5.43596e-49 6.35164e-49 7.32207e-49 8.33183e-49 9.3636e-49 1.03991e-48 1.142e-48 1.24088e-48 1.33499e-48 1.42298e-48 1.50378e-48 1.57659e-48 1.64092e-48 1.69653e-48 1.7434e-48 1.78172e-48 1.81183e-48 1.83423e-48 1.84945e-48 1.85815e-48 1.86097e-48 1.85861e-48 1.85174e-48 1.84104e-48 1.82715e-48 1.81068e-48 1.79221e-48 1.77229e-48 1.75142e-48 1.7301e-48 1.70878e-48 1.68793e-48 1.66796e-48 1.64929e-48 1.63232e-48 1.61741e-48 1.60491e-48 1.59508e-48 1.58817e-48 1.58431e-48 1.58354e-48 1.58581e-48 1.59091e-48 1.59849e-48 1.60805e-48 1.61897e-48 1.63048e-48 1.64176e-48 1.65195e-48 1.66024e-48 1.66591e-48 1.66842e-48 1.66745e-48 1.66294e-48 1.65507e-48 1.6443e-48 1.63127e-48 1.61676e-48 1.60162e-48 1.58667e-48 1.57263e-48 1.56008e-48 1.54939e-48 1.54072e-48 1.53401e-48 1.52904e-48 1.52546e-48 1.52282e-48 1.52069e-48 1.51866e-48 1.51638e-48 1.51365e-48 1.5104e-48 1.50668e-48 1.5027e-48 1.49879e-48 1.49533e-48 1.4928e-48 1.49167e-48 1.49239e-48 1.49535e-48 1.50089e-48 1.50921e-48 1.52042e-48 1.5345e-48 1.55131e-48 1.57057e-48 1.59188e-48 1.61473e-48 1.63841e-48 1.66211e-48 1.6848e-48 1.70531e-48 1.72229e-48 1.73424e-48 1.73959e-48 1.73673e-48 1.72413e-48 1.70044e-48 1.66461e-48 1.616e-48 1.55444e-48 1.48036e-48 1.39472e-48 1.29908e-48 1.19544e-48 1.08621e-48 9.73995e-49 8.61493e-49 7.51293e-49 6.45749e-49 5.46847e-49 4.56127e-49 3.74636e-49 3.02926e-49 2.41093e-49 1.88834e-49 1.45533e-49 1.10353e-49 8.23198e-50 6.04081e-50 4.36049e-50 3.09608e-50 2.16231e-50 1.48545e-50 1.00377e-50 6.67212e-51 4.36277e-51 2.80642e-51 1.77607e-51 1.10591e-51 6.77577e-52 4.08525e-52 2.42403e-52 1.41566e-52 8.13815e-53 4.60559e-53 2.56617e-53 1.40791e-53 7.60684e-54 4.04787e-54 2.12175e-54 1.09562e-54 5.57414e-55 2.7945e-55 1.38067e-55 6.7235e-56 3.22754e-56 1.52748e-56 7.12794e-57 3.28012e-57 1.48871e-57 6.66463e-58 2.94337e-58 1.28252e-58 5.51395e-59 2.33842e-59 9.75961e-60 3.9473e-60 1.38842e-60 0 
0 1.29897e-82 5.44349e-82 2.13582e-81 8.27789e-81 3.17922e-80 1.21011e-79 4.5647e-79 1.70628e-78 6.31987e-78 2.3193e-77 8.43262e-77 3.03735e-76 1.08373e-75 3.83012e-75 1.34069e-74 4.64774e-74 1.59557e-73 5.42395e-73 1.8256e-72 6.08349e-72 2.00687e-71 6.5534e-71 2.11817e-70 6.77584e-70 2.14503e-69 6.71949e-69 2.08272e-68 6.38668e-68 1.93745e-67 5.81374e-67 1.72548e-66 5.06463e-66 1.47004e-65 4.21899e-65 1.19714e-64 3.35806e-64 9.31103e-64 2.55168e-63 6.91075e-63 1.84948e-62 4.89045e-62 1.27755e-61 3.29673e-61 8.40267e-61 2.1151e-60 5.25738e-60 1.29028e-59 3.12623e-59 7.47701e-59 1.76503e-58 4.11184e-58 9.45214e-58 2.14376e-57 4.79644e-57 1.05853e-56 2.30395e-56 4.94507e-56 1.04651e-55 2.18337e-55 4.49026e-55 9.10155e-55 1.81804e-54 3.57831e-54 6.93877e-54 1.32545e-53 2.49379e-53 4.62084e-53 8.43125e-53 1.51468e-52 2.67889e-52 4.66385e-52 7.99174e-52 1.34772e-51 2.23655e-51 3.65202e-51 5.86717e-51 9.27323e-51 1.44182e-50 2.20517e-50 3.31748e-50 4.90899e-50 7.14479e-50 1.02282e-49 1.44023e-49 1.99481e-49 2.71794e-49 3.6432e-49 4.80488e-49 6.23595e-49 7.96565e-49 1.00169e-48 1.24035e-48 1.51282e-48 1.81804e-48 2.15357e-48 2.51558e-48 2.89897e-48 3.29759e-48 3.70456e-48 4.11263e-48 4.51456e-48 4.90348e-48 5.27322e-48 5.61853e-48 5.93526e-48 6.22037e-48 6.47195e-48 6.68912e-48 6.87193e-48 7.02117e-48 7.13826e-48 7.22511e-48 7.28396e-48 7.31728e-48 7.3277e-48 7.31789e-48 7.29052e-48 7.24822e-48 7.1935e-48 7.12874e-48 7.05619e-48 6.97799e-48 6.89612e-48 6.81249e-48 6.72892e-48 6.64715e-48 6.56887e-48 6.4957e-48 6.42918e-48 6.37077e-48 6.32176e-48 6.28328e-48 6.2562e-48 6.24109e-48 6.23815e-48 6.2471e-48 6.26716e-48 6.29696e-48 6.33457e-48 6.37748e-48 6.42274e-48 6.46709e-48 6.50717e-48 6.53978e-48 6.56211e-48 6.57204e-48 6.56829e-48 6.55062e-48 6.5198e-48 6.47756e-48 6.42645e-48 6.36955e-48 6.31018e-48 6.25157e-48 6.19658e-48 6.14745e-48 6.10562e-48 6.07171e-48 6.04553e-48 6.02616e-48 6.01222e-48 6.00199e-48 5.99371e-48 5.98576e-48 5.97684e-48 5.96612e-48 5.9533e-48 5.93865e-48 5.92296e-48 5.90749e-48 5.89384e-48 5.8838e-48 5.87926e-48 5.882e-48 5.89359e-48 5.91528e-48 5.94792e-48 5.99193e-48 6.04722e-48 6.11323e-48 6.18893e-48 6.27275e-48 6.36261e-48 6.45587e-48 6.54925e-48 6.63881e-48 6.71992e-48 6.78727e-48 6.83502e-48 6.85693e-48 6.84668e-48 6.79819e-48 6.70613e-48 6.56627e-48 6.37602e-48 6.1347e-48 5.84384e-48 5.50726e-48 5.13097e-48 4.7229e-48 4.29246e-48 3.84999e-48 3.4061e-48 2.97106e-48 2.55419e-48 2.16339e-48 1.80479e-48 1.48255e-48 1.19891e-48 9.54268e-49 7.47466e-49 5.76088e-49 4.3683e-49 3.25855e-49 2.39109e-49 1.72586e-49 1.22529e-49 8.55644e-50 5.87718e-50 3.97076e-50 2.63889e-50 1.72515e-50 1.10948e-50 7.01972e-51 4.36981e-51 2.67658e-51 1.61329e-51 9.56969e-52 5.58701e-52 3.21072e-52 1.81641e-52 1.01172e-52 5.54873e-53 2.99685e-53 1.59414e-53 8.35274e-54 4.31151e-54 2.19271e-54 1.09885e-54 5.42695e-55 2.64174e-55 1.26765e-55 5.99698e-56 2.79737e-56 1.28679e-56 5.83792e-57 2.61251e-57 1.15335e-57 5.02362e-58 2.159e-58 9.15273e-59 3.8186e-59 1.54393e-59 5.42917e-60 0 
0 4.97966e-82 2.08702e-81 8.18973e-81 3.17455e-80 1.21939e-79 4.64207e-79 1.75131e-78 6.54739e-78 2.42547e-77 8.90259e-77 3.23741e-76 1.16629e-75 4.16211e-75 1.47125e-74 5.15095e-74 1.78602e-73 6.13268e-73 2.08518e-72 7.01987e-72 2.33977e-71 7.72041e-71 2.52169e-70 8.15254e-70 2.60858e-69 8.26016e-69 2.58825e-68 8.0245e-68 2.46141e-67 7.46903e-67 2.2419e-66 6.6558e-66 1.95421e-65 5.67401e-65 1.62896e-64 4.62367e-64 1.29741e-63 3.59862e-63 9.86542e-63 2.67282e-62 7.15568e-62 1.89283e-61 4.94656e-61 1.27695e-60 3.25596e-60 8.19905e-60 2.03881e-59 5.00574e-59 1.21335e-58 2.90318e-58 6.85615e-58 1.59791e-57 3.67479e-57 8.33811e-57 1.86639e-56 4.12077e-56 8.97309e-56 1.92679e-55 4.07943e-55 8.51491e-55 1.75194e-54 3.55269e-54 7.09968e-54 1.398e-53 2.71209e-53 5.1829e-53 9.75569e-53 1.80844e-52 3.30109e-52 5.93287e-52 1.04972e-51 1.82823e-51 3.13396e-51 5.28702e-51 8.77687e-51 1.43364e-50 2.30394e-50 3.64252e-50 5.66501e-50 8.66645e-50 1.30408e-49 1.93008e-49 2.80963e-49 4.02273e-49 5.66502e-49 7.84706e-49 1.06921e-48 1.43322e-48 1.89018e-48 2.45299e-48 3.13308e-48 3.93934e-48 4.87709e-48 5.94719e-48 7.14531e-48 8.46166e-48 9.88095e-48 1.1383e-47 1.29434e-47 1.45351e-47 1.61296e-47 1.76985e-47 1.9215e-47 2.06551e-47 2.19985e-47 2.32292e-47 2.43357e-47 2.53107e-47 2.61513e-47 2.68579e-47 2.74338e-47 2.78848e-47 2.82185e-47 2.84436e-47 2.857e-47 2.86078e-47 2.85674e-47 2.84592e-47 2.82934e-47 2.80796e-47 2.78271e-47 2.75445e-47 2.72402e-47 2.69217e-47 2.65965e-47 2.62716e-47 2.59538e-47 2.56496e-47 2.53652e-47 2.51068e-47 2.48798e-47 2.46894e-47 2.45399e-47 2.44348e-47 2.43762e-47 2.4365e-47 2.44001e-47 2.44783e-47 2.45945e-47 2.47411e-47 2.49084e-47 2.50848e-47 2.52577e-47 2.5414e-47 2.55412e-47 2.56284e-47 2.56673e-47 2.5653e-47 2.55844e-47 2.54646e-47 2.53004e-47 2.51017e-47 2.48805e-47 2.46497e-47 2.44219e-47 2.42083e-47 2.40176e-47 2.38553e-47 2.37239e-47 2.36226e-47 2.35478e-47 2.3494e-47 2.34547e-47 2.34228e-47 2.3392e-47 2.33574e-47 2.33156e-47 2.32655e-47 2.32082e-47 2.31469e-47 2.30863e-47 2.30328e-47 2.29933e-47 2.29753e-47 2.29857e-47 2.30305e-47 2.31148e-47 2.32417e-47 2.3413e-47 2.36283e-47 2.38854e-47 2.41804e-47 2.45072e-47 2.48578e-47 2.52219e-47 2.55869e-47 2.59374e-47 2.62556e-47 2.65207e-47 2.671e-47 2.67991e-47 2.67633e-47 2.65787e-47 2.62243e-47 2.56834e-47 2.49455e-47 2.40078e-47 2.28758e-47 2.15644e-47 2.00967e-47 1.85035e-47 1.68218e-47 1.50917e-47 1.3355e-47 1.1652e-47 1.00193e-47 8.48792e-48 7.08214e-48 5.81848e-48 4.70584e-48 3.74595e-48 2.93434e-48 2.26163e-48 1.71494e-48 1.27924e-48 9.38646e-49 6.77451e-49 4.80915e-49 3.3579e-49 2.30609e-49 1.55778e-49 1.03506e-49 6.76517e-50 4.34976e-50 2.7514e-50 1.71229e-50 1.0485e-50 6.31782e-51 3.74639e-51 2.1865e-51 1.25609e-51 7.10359e-52 3.95518e-52 2.16839e-52 1.17069e-52 6.22495e-53 3.26039e-53 1.68228e-53 8.55214e-54 4.28408e-54 2.11495e-54 1.0291e-54 4.93616e-55 2.33425e-55 1.0884e-55 5.00463e-56 2.2696e-56 1.01525e-56 4.48029e-57 1.9507e-57 8.38026e-58 3.55132e-58 1.48109e-58 5.98621e-59 2.10446e-59 0 
0 1.89187e-81 7.92991e-81 3.11221e-80 1.20654e-79 4.63517e-79 1.76482e-78 6.65914e-78 2.48996e-77 9.22556e-77 3.38678e-76 1.23181e-75 4.43849e-75 1.58425e-74 5.60119e-74 1.96142e-73 6.80236e-73 2.33623e-72 7.94519e-72 2.6754e-71 8.91938e-71 2.94378e-70 9.61756e-70 3.11011e-69 9.95406e-69 3.15283e-68 9.88183e-68 3.06458e-67 9.40292e-67 2.85411e-66 8.5695e-66 2.54492e-65 7.47452e-65 2.17091e-64 6.23456e-64 1.77024e-63 4.96903e-63 1.37874e-62 3.78112e-62 1.02479e-61 2.7446e-61 7.26282e-61 1.89874e-60 4.90354e-60 1.2508e-59 3.15101e-59 7.83869e-59 1.92539e-58 4.66895e-58 1.11762e-57 2.64054e-57 6.15682e-57 1.41655e-56 3.2156e-56 7.20102e-56 1.59063e-55 3.46524e-55 7.44435e-55 1.57686e-54 3.29288e-54 6.77824e-54 1.37517e-53 2.74942e-53 5.41637e-53 1.05125e-52 2.00988e-52 3.78487e-52 7.01924e-52 1.28184e-51 2.30475e-51 4.07956e-51 7.10802e-51 1.21894e-50 2.05713e-50 3.41625e-50 5.58213e-50 8.97375e-50 1.41918e-49 2.2078e-49 3.37843e-49 5.08489e-49 7.52738e-49 1.09596e-48 1.56939e-48 2.21036e-48 3.062e-48 4.17239e-48 5.59293e-48 7.37595e-48 9.5716e-48 1.22241e-47 1.53676e-47 1.90224e-47 2.31911e-47 2.7856e-47 3.29781e-47 3.8497e-47 4.43331e-47 5.03911e-47 5.65648e-47 6.27433e-47 6.8816e-47 7.46794e-47 8.02406e-47 8.5422e-47 9.01626e-47 9.44189e-47 9.81647e-47 1.01389e-46 1.04096e-46 1.06298e-46 1.08019e-46 1.09289e-46 1.10142e-46 1.10616e-46 1.10751e-46 1.10586e-46 1.10162e-46 1.09516e-46 1.08688e-46 1.07711e-46 1.0662e-46 1.05446e-46 1.04217e-46 1.02964e-46 1.01711e-46 1.00486e-46 9.93138e-47 9.82181e-47 9.72223e-47 9.63479e-47 9.56145e-47 9.50388e-47 9.46342e-47 9.44091e-47 9.43666e-47 9.45026e-47 9.48054e-47 9.52547e-47 9.58214e-47 9.64679e-47 9.71499e-47 9.78185e-47 9.8423e-47 9.89152e-47 9.92529e-47 9.9404e-47 9.93496e-47 9.90858e-47 9.86242e-47 9.79911e-47 9.72249e-47 9.63719e-47 9.54823e-47 9.46046e-47 9.3782e-47 9.30478e-47 9.24238e-47 9.19191e-47 9.15303e-47 9.12439e-47 9.10385e-47 9.08882e-47 9.07663e-47 9.06484e-47 9.0515e-47 9.03535e-47 9.01597e-47 8.99377e-47 8.96995e-47 8.94643e-47 8.92562e-47 8.91026e-47 8.90316e-47 8.90703e-47 8.92425e-47 8.9567e-47 9.00566e-47 9.07176e-47 9.15489e-47 9.25422e-47 9.36822e-47 9.49458e-47 9.63023e-47 9.77123e-47 9.91272e-47 1.00488e-46 1.01726e-46 1.02762e-46 1.03507e-46 1.03867e-46 1.03746e-46 1.0305e-46 1.01699e-46 9.96262e-47 9.67897e-47 9.31774e-47 8.881e-47 8.37435e-47 7.8067e-47 7.18997e-47 6.53836e-47 5.86754e-47 5.1937e-47 4.5325e-47 3.89826e-47 3.30311e-47 2.75653e-47 2.26503e-47 1.83212e-47 1.45854e-47 1.14261e-47 8.80692e-48 6.67812e-48 4.98135e-48 3.6549e-48 2.63765e-48 1.87224e-48 1.30708e-48 8.97517e-49 6.06166e-49 4.02682e-49 2.63133e-49 1.69143e-49 1.06961e-49 6.65463e-50 4.07364e-50 2.45382e-50 1.4546e-50 8.4865e-51 4.87354e-51 2.75512e-51 1.53343e-51 8.40362e-52 4.53524e-52 2.41056e-52 1.26204e-52 6.50914e-53 3.30766e-53 1.65623e-53 8.17301e-54 3.97519e-54 1.90593e-54 9.00911e-55 4.19896e-55 1.92993e-55 8.74859e-56 3.91188e-56 1.72559e-56 7.51011e-57 3.22506e-57 1.36615e-57 5.69535e-58 2.3011e-58 8.0873e-59 0 
0 7.12278e-81 2.98592e-80 1.17203e-79 4.54437e-79 1.74607e-78 6.64911e-78 2.5093e-77 9.38424e-77 3.47755e-76 1.27687e-75 4.64497e-75 1.674e-74 5.97626e-74 2.11336e-73 7.40207e-73 2.56765e-72 8.82041e-72 3.00038e-71 1.01056e-70 3.36987e-70 1.11248e-69 3.63548e-69 1.17594e-68 3.76467e-68 1.19274e-67 3.73944e-67 1.16002e-66 3.56031e-66 1.08101e-65 3.24675e-65 9.64509e-65 2.83373e-64 8.23309e-64 2.36524e-63 6.7182e-63 1.88647e-62 5.23624e-62 1.43654e-61 3.8949e-61 1.04354e-60 2.76253e-60 7.22507e-60 1.86665e-59 4.76347e-59 1.20052e-58 2.98778e-58 7.34196e-58 1.78117e-57 4.26556e-57 1.00825e-56 2.35197e-56 5.41386e-56 1.22954e-55 2.75472e-55 6.08778e-55 1.32687e-54 2.85188e-54 6.04376e-54 1.2627e-53 2.60045e-53 5.27836e-53 1.05582e-52 2.08097e-52 4.04081e-52 7.72929e-52 1.45621e-51 2.70185e-51 4.93628e-51 8.87942e-51 1.5724e-50 2.74082e-50 4.70208e-50 7.93858e-50 1.31885e-49 2.15576e-49 3.46676e-49 5.48436e-49 8.5345e-49 1.30633e-48 1.96664e-48 2.91194e-48 4.24047e-48 6.07324e-48 8.55471e-48 1.18519e-47 1.61506e-47 2.16496e-47 2.85507e-47 3.70472e-47 4.73087e-47 5.94659e-47 7.35946e-47 8.9702e-47 1.07717e-46 1.27485e-46 1.48769e-46 1.71258e-46 1.94581e-46 2.18327e-46 2.42066e-46 2.65374e-46 2.8785e-46 3.09142e-46 3.28953e-46 3.47054e-46 3.63284e-46 3.77545e-46 3.89804e-46 4.00076e-46 4.08419e-46 4.14926e-46 4.19712e-46 4.22913e-46 4.24672e-46 4.25141e-46 4.24474e-46 4.22823e-46 4.20334e-46 4.1715e-46 4.13405e-46 4.09226e-46 4.04731e-46 4.00033e-46 3.9524e-46 3.90453e-46 3.85772e-46 3.81292e-46 3.77106e-46 3.73302e-46 3.69962e-46 3.67161e-46 3.64963e-46 3.63419e-46 3.62561e-46 3.62401e-46 3.62925e-46 3.64087e-46 3.6581e-46 3.67982e-46 3.7046e-46 3.73074e-46 3.75637e-46 3.77956e-46 3.79844e-46 3.81141e-46 3.81724e-46 3.81519e-46 3.80513e-46 3.78749e-46 3.76329e-46 3.734e-46 3.70139e-46 3.66739e-46 3.63386e-46 3.60244e-46 3.57442e-46 3.55063e-46 3.5314e-46 3.51662e-46 3.50575e-46 3.49796e-46 3.49228e-46 3.48767e-46 3.48318e-46 3.47809e-46 3.4719e-46 3.46446e-46 3.45593e-46 3.44676e-46 3.43771e-46 3.42968e-46 3.42375e-46 3.42098e-46 3.42241e-46 3.42896e-46 3.44136e-46 3.46008e-46 3.48538e-46 3.51721e-46 3.55526e-46 3.59895e-46 3.6474e-46 3.69945e-46 3.7536e-46 3.80801e-46 3.86043e-46 3.90823e-46 3.94836e-46 3.97745e-46 3.99188e-46 3.98795e-46 3.96206e-46 3.91104e-46 3.83233e-46 3.72426e-46 3.58633e-46 3.41929e-46 3.22523e-46 3.00756e-46 2.77082e-46 2.52047e-46 2.26254e-46 2.00325e-46 1.74867e-46 1.50433e-46 1.27493e-46 1.06416e-46 8.74553e-47 7.07494e-47 5.63288e-47 4.41303e-47 3.40158e-47 2.57937e-47 1.92396e-47 1.41157e-47 1.01861e-47 7.2294e-48 5.04641e-48 3.46459e-48 2.33947e-48 1.5538e-48 1.01509e-48 6.52333e-49 4.12401e-49 2.565e-49 1.56967e-49 9.45199e-50 5.60109e-50 3.26664e-50 1.87523e-50 1.0597e-50 5.89569e-51 3.2297e-51 1.74228e-51 9.25666e-52 4.84425e-52 2.49741e-52 1.26853e-52 6.34911e-53 3.13173e-53 1.52255e-53 7.29675e-54 3.44759e-54 1.60615e-54 7.37903e-55 3.34355e-55 1.49441e-55 6.58926e-56 2.86657e-56 1.23048e-56 5.2102e-57 2.17122e-57 8.76915e-58 3.08105e-58 0 
0 2.65732e-80 1.11411e-79 4.37369e-79 1.69609e-78 6.51786e-78 2.48242e-77 9.36993e-77 3.50476e-76 1.299e-75 4.77047e-75 1.73573e-74 6.2566e-74 2.23409e-73 7.90196e-73 2.76827e-72 9.60479e-72 3.30019e-71 1.12287e-70 3.78286e-70 1.26177e-69 4.16647e-69 1.36192e-68 4.40651e-68 1.4111e-67 4.47198e-67 1.40245e-66 4.35188e-66 1.33608e-65 4.05798e-65 1.21919e-64 3.62302e-64 1.0648e-63 3.09474e-63 8.89387e-63 2.52711e-62 7.09875e-62 1.97113e-61 5.4098e-61 1.46734e-60 3.93294e-60 1.04158e-59 2.72526e-59 7.04389e-59 1.79828e-58 4.53412e-58 1.12893e-57 2.77539e-57 6.73622e-57 1.61394e-56 3.81667e-56 8.90742e-56 2.05133e-55 4.661e-55 1.04479e-54 2.31005e-54 5.03741e-54 1.08324e-53 2.29677e-53 4.80093e-53 9.89219e-53 2.00891e-52 4.02039e-52 7.92792e-52 1.54019e-51 2.94753e-51 5.55586e-51 1.03133e-50 1.88512e-50 3.39254e-50 6.01032e-50 1.04811e-49 1.79887e-49 3.03831e-49 5.04956e-49 8.25702e-49 1.32831e-48 2.10208e-48 3.27216e-48 5.00993e-48 7.54427e-48 1.11731e-47 1.62739e-47 2.33114e-47 3.28406e-47 4.55022e-47 6.20096e-47 8.31239e-47 1.09618e-46 1.42231e-46 1.81607e-46 2.2824e-46 2.82413e-46 3.44143e-46 4.13142e-46 4.88804e-46 5.70208e-46 6.56149e-46 7.45195e-46 8.35763e-46 9.26205e-46 1.0149e-45 1.10032e-45 1.18113e-45 1.25622e-45 1.32473e-45 1.38606e-45 1.43987e-45 1.48605e-45 1.52468e-45 1.55599e-45 1.58036e-45 1.59822e-45 1.6101e-45 1.61655e-45 1.61815e-45 1.61548e-45 1.6091e-45 1.59958e-45 1.58744e-45 1.5732e-45 1.55733e-45 1.54027e-45 1.52246e-45 1.50429e-45 1.48615e-45 1.46842e-45 1.45144e-45 1.43559e-45 1.42118e-45 1.40853e-45 1.39792e-45 1.3896e-45 1.38376e-45 1.38052e-45 1.37993e-45 1.38192e-45 1.38634e-45 1.39289e-45 1.40115e-45 1.41057e-45 1.4205e-45 1.43025e-45 1.43906e-45 1.44625e-45 1.45119e-45 1.45342e-45 1.45266e-45 1.44885e-45 1.44217e-45 1.433e-45 1.42189e-45 1.40953e-45 1.39665e-45 1.38395e-45 1.37205e-45 1.36145e-45 1.35246e-45 1.3452e-45 1.33962e-45 1.33553e-45 1.33261e-45 1.33048e-45 1.32875e-45 1.32706e-45 1.32513e-45 1.32278e-45 1.31995e-45 1.3167e-45 1.3132e-45 1.30974e-45 1.30667e-45 1.3044e-45 1.30333e-45 1.30386e-45 1.30633e-45 1.31102e-45 1.31812e-45 1.32772e-45 1.3398e-45 1.35426e-45 1.37086e-45 1.38928e-45 1.40909e-45 1.42971e-45 1.45046e-45 1.47049e-45 1.48879e-45 1.50423e-45 1.51551e-45 1.52125e-45 1.52004e-45 1.51052e-45 1.49144e-45 1.46183e-45 1.42103e-45 1.36883e-45 1.3055e-45 1.23182e-45 1.14906e-45 1.05896e-45 9.63588e-46 8.65244e-46 7.66309e-46 6.69104e-46 5.75752e-46 4.88063e-46 4.07455e-46 3.34911e-46 2.70972e-46 2.15763e-46 1.6905e-46 1.30309e-46 9.88123e-47 7.37027e-47 5.40708e-47 3.90149e-47 2.76869e-47 1.93238e-47 1.32643e-47 8.95498e-48 5.94627e-48 3.8837e-48 2.49513e-48 1.57694e-48 9.80502e-49 5.99828e-49 3.61069e-49 2.13886e-49 1.24694e-49 7.15536e-50 4.0419e-50 2.24781e-50 1.23085e-50 6.63703e-51 3.5247e-51 1.84376e-51 9.50112e-52 4.82382e-52 2.41328e-52 1.18983e-52 5.78194e-53 2.76972e-53 1.30805e-53 6.09118e-54 2.79717e-54 1.26687e-54 5.65981e-55 2.49447e-55 1.08471e-55 4.65412e-56 1.96985e-56 8.20547e-57 3.31277e-57 1.1636e-57 0 
0 9.823e-80 4.11891e-79 1.61721e-78 6.27242e-78 2.4108e-77 9.18342e-77 3.46689e-76 1.297e-75 4.80806e-75 1.76606e-74 6.42702e-74 2.31715e-73 8.27575e-73 2.92776e-72 1.0259e-71 3.56028e-71 1.2236e-70 4.16421e-70 1.40324e-69 4.68169e-69 1.54635e-68 5.05603e-68 1.63634e-67 5.24154e-67 1.66161e-66 5.21252e-66 1.61798e-65 4.96895e-65 1.50968e-64 4.53721e-64 1.34877e-63 3.96541e-63 1.15292e-62 3.31454e-62 9.42148e-62 2.64753e-61 7.35436e-61 2.01922e-60 5.47909e-60 1.46918e-59 3.89253e-59 1.0189e-58 2.63468e-58 6.72925e-58 1.69745e-57 4.22833e-57 1.03999e-56 2.52538e-56 6.05348e-56 1.43223e-55 3.3442e-55 7.70533e-55 1.75167e-54 3.92843e-54 8.69029e-54 1.89601e-53 4.07927e-53 8.65364e-53 1.80981e-52 3.73099e-52 7.58082e-52 1.51792e-51 2.99477e-51 5.82106e-51 1.11457e-50 2.10192e-50 3.90371e-50 7.13891e-50 1.28536e-49 2.27824e-49 3.97472e-49 6.82485e-49 1.15321e-48 1.91739e-48 3.13653e-48 5.04763e-48 7.99073e-48 1.24427e-47 1.90563e-47 2.87039e-47 4.25209e-47 6.19455e-47 8.87487e-47 1.25044e-46 1.73271e-46 2.36145e-46 3.16559e-46 4.17446e-46 5.41602e-46 6.91465e-46 8.68885e-46 1.0749e-45 1.30952e-45 1.57162e-45 1.85883e-45 2.16758e-45 2.49326e-45 2.83037e-45 3.17288e-45 3.51451e-45 3.84911e-45 4.17095e-45 4.475e-45 4.75709e-45 5.01406e-45 5.24375e-45 5.44495e-45 5.61732e-45 5.76122e-45 5.87764e-45 5.96799e-45 6.03401e-45 6.07765e-45 6.10103e-45 6.10631e-45 6.09566e-45 6.07122e-45 6.03508e-45 5.98922e-45 5.93552e-45 5.87575e-45 5.8116e-45 5.74462e-45 5.67634e-45 5.6082e-45 5.54158e-45 5.47784e-45 5.4183e-45 5.3642e-45 5.3167e-45 5.27688e-45 5.24565e-45 5.22373e-45 5.2116e-45 5.20942e-45 5.21698e-45 5.23366e-45 5.25834e-45 5.28945e-45 5.32494e-45 5.36239e-45 5.39912e-45 5.43236e-45 5.45946e-45 5.47812e-45 5.48656e-45 5.48376e-45 5.46949e-45 5.4444e-45 5.40994e-45 5.36821e-45 5.32177e-45 5.27337e-45 5.22566e-45 5.18101e-45 5.14124e-45 5.10754e-45 5.08037e-45 5.05954e-45 5.04428e-45 5.03341e-45 5.02549e-45 5.01906e-45 5.01275e-45 5.00552e-45 4.99667e-45 4.98598e-45 4.97368e-45 4.96045e-45 4.94736e-45 4.93573e-45 4.92709e-45 4.92298e-45 4.9249e-45 4.93414e-45 4.95175e-45 4.97845e-45 5.01456e-45 5.06005e-45 5.11448e-45 5.17704e-45 5.24651e-45 5.32124e-45 5.39915e-45 5.47762e-45 5.5535e-45 5.62305e-45 5.68194e-45 5.72533e-45 5.74802e-45 5.74464e-45 5.71001e-45 5.63942e-45 5.52908e-45 5.37647e-45 5.1807e-45 4.94269e-45 4.66535e-45 4.35344e-45 4.01346e-45 3.65323e-45 3.28143e-45 2.9071e-45 2.53906e-45 2.18538e-45 1.85297e-45 1.54725e-45 1.27199e-45 1.0293e-45 8.19672e-46 6.42258e-46 4.95094e-46 3.75428e-46 2.80019e-46 2.05419e-46 1.48207e-46 1.05162e-46 7.33858e-47 5.03647e-47 3.3995e-47 2.2568e-47 1.4736e-47 9.46466e-48 5.97992e-48 3.71695e-48 2.27308e-48 1.3678e-48 8.09934e-49 4.72003e-49 2.70741e-49 1.52872e-49 8.49796e-50 4.65126e-50 2.50696e-50 1.33076e-50 6.95799e-51 3.58389e-51 1.81873e-51 9.0946e-52 4.48183e-52 2.17692e-52 1.04232e-52 4.92025e-53 2.29013e-53 1.05117e-53 4.75871e-54 2.12499e-54 9.36132e-55 4.0689e-55 1.74504e-55 7.38264e-56 3.07393e-56 1.24054e-56 4.35597e-57 0 