# vtk DataFile Version 3.0
Gray-Scott Simulation Output
ASCII
DATASET STRUCTURED_POINTS
DIMENSIONS 256 256 1
SPACING 1.0 1.0 1.0
ORIGIN 0 0 0
POINT_DATA 65536
SCALARS u double
LOOKUP_TABLE default
0 0 0 0 0 0 0 0 0 0 0 0 0 0 0 0 0 0 0 0 0 0 0 0 0 0 0 0 0 0 0 0 0 0 0 0 0 0 0 0 0 0 0 0 0 0 0 0 0 0 0 0 0 0 0 0 0 0 0 0 0 0 0 0 0 0 0 0 0 0 0 0 0 0 0 0 0 0 0 0 0 0 0 0 0 0 0 0 0 0 0 0 0 0 0 0 0 0 0 0 0 0 0 0 0 0 0 0 0 0 0 0 0 0 0 0 0 0 0 0 0 0 0 0 0 0 0 0 0 0 0 0 0 0 0 0 0 0 0 0 0 0 0 0 0 0 0 0 0 0 0 0 0 0 0 0 0 0 0 0 0 0 0 0 0 0 0 0 0 0 0 0 0 0 0 0 0 0 0 0 0 0 0 0 0 0 0 0 0 0 0 0 0 0 0 0 0 0 0 0 0 0 0 0 0 0 0 0 0 0 0 0 0 0 0 0 0 0 0 0 0 0 0 0 0 0 0 0 0 0 0 0 0 0 0 0 0 0 0 0 0 0 0 0 0 0 0 0 0 0 0 0 0 0 0 0 
0 5.80997e-124 4.94895e-123 4.11725e-122 3.3899e-121 2.7624e-120 2.22776e-119 1.77781e-118 1.40378e-117 1.09663e-116 8.47477e-116 6.47817e-115 4.89766e-114 3.66174e-113 2.70707e-112 1.97868e-111 1.42977e-110 1.02121e-109 7.20896e-109 5.02901e-108 3.4665e-107 2.36069e-106 1.58807e-105 1.05518e-104 6.9238e-104 4.48605e-103 2.86961e-102 1.81198e-101 1.12925e-100 6.94496e-100 4.21423e-99 2.5227e-98 1.4895e-97 8.67292e-97 4.97929e-96 2.81818e-95 1.57212e-94 8.64254e-94 4.6811e-93 2.49759e-92 1.31242e-91 6.79063e-91 3.45893e-90 1.73409e-89 8.55468e-89 4.15179e-88 1.98182e-87 9.30215e-87 4.29225e-86 1.94651e-85 8.67328e-85 3.79618e-84 1.63164e-83 6.88485e-83 2.85119e-82 1.15847e-81 4.61679e-81 1.80405e-80 6.90984e-80 2.59328e-79 9.53324e-79 3.43151e-78 1.20899e-77 4.16764e-77 1.40512e-76 4.6315e-76 1.49188e-75 4.69422e-75 1.4422e-74 4.32437e-74 1.26491e-73 3.6077e-73 1.00284e-72 2.71548e-72 7.15916e-72 1.83679e-71 4.58369e-71 1.112e-70 2.62123e-70 6.00047e-70 1.33328e-69 2.874e-69 6.0071e-69 1.21686e-68 2.38785e-68 4.53705e-68 8.34376e-68 1.48461e-67 2.55504e-67 4.25219e-67 6.84225e-67 1.06449e-66 1.60133e-66 2.32988e-66 3.2801e-66 4.47124e-66 5.90667e-66 7.5707e-66 9.42828e-66 1.14282e-65 1.35094e-65 1.5608e-65 1.76654e-65 1.96327e-65 2.1473e-65 2.31609e-65 2.46793e-65 2.60171e-65 2.7166e-65 2.812e-65 2.88753e-65 2.94311e-65 2.97908e-65 2.99631e-65 2.99632e-65 2.98127e-65 2.95386e-65 2.91716e-65 2.87424e-65 2.82773e-65 2.77948e-65 2.73036e-65 2.68033e-65 2.62883e-65 2.57532e-65 2.51981e-65 2.46317e-65 2.40711e-65 2.35387e-65 2.30556e-65 2.26374e-65 2.22905e-65 2.20133e-65 2.18002e-65 2.16473e-65 2.1558e-65 2.15453e-65 2.16295e-65 2.18332e-65 2.21726e-65 2.26499e-65 2.32473e-65 2.39253e-65 2.46254e-65 2.52765e-65 2.58043e-65 2.61421e-65 2.62404e-65 2.60758e-65 2.56553e-65 2.50169e-65 2.42255e-65 2.33639e-65 2.25202e-65 2.17748e-65 2.11883e-65 2.07932e-65 2.05919e-65 2.05601e-65 2.0655e-65 2.08262e-65 2.10255e-65 2.12136e-65 2.13636e-65 2.14599e-65 2.14956e-65 2.14689e-65 2.13809e-65 2.12352e-65 2.10387e-65 2.08035e-65 2.05481e-65 2.02978e-65 2.0083e-65 1.99358e-65 1.98848e-65 1.99495e-65 2.01367e-65 2.04384e-65 2.08343e-65 2.12973e-65 2.18012e-65 2.23279e-65 2.28718e-65 2.34402e-65 2.40486e-65 2.47124e-65 2.54376e-65 2.6213e-65 2.7005e-65 2.77569e-65 2.83923e-65 2.88222e-65 2.89546e-65 2.87062e-65 2.8014e-65 2.68455e-65 2.52066e-65 2.31438e-65 2.0742e-65 1.81159e-65 1.53969e-65 1.2718e-65 1.01984e-65 7.93148e-66 5.97778e-66 4.3632e-66 3.08267e-66 2.10739e-66 1.39363e-66 8.91408e-67 5.5147e-67 3.29999e-67 1.91035e-67 1.07008e-67 5.80163e-68 3.04549e-68 1.54847e-68 7.629e-69 3.6437e-69 1.68783e-69 7.5864e-70 3.31036e-70 1.40303e-70 5.77862e-71 2.31403e-71 9.01403e-72 3.41735e-72 1.26152e-72 4.53678e-73 1.59021e-73 5.43521e-74 1.81233e-74 5.89811e-75 1.87427e-75 5.81814e-76 1.76502e-76 5.2349e-77 1.51856e-77 4.31013e-78 1.19742e-78 3.25733e-79 8.67942e-80 2.26613e-80 5.79953e-81 1.45531e-81 3.58191e-82 8.64977e-83 2.05001e-83 4.7698e-84 1.08983e-84 2.44598e-85 5.39348e-86 1.16685e-86 2.3832e-87 0 
0 4.94507e-123 4.2111e-122 3.50246e-121 2.88294e-120 2.34865e-119 1.89358e-118 1.51073e-117 1.19257e-116 9.31395e-116 7.19593e-115 5.4992e-114 4.15646e-113 3.10678e-112 2.29622e-111 1.67795e-110 1.21216e-109 8.6557e-109 6.10875e-108 4.26046e-107 2.93602e-106 1.99895e-105 1.34441e-104 8.93065e-104 5.85868e-103 3.79506e-102 2.42704e-101 1.53218e-100 9.54661e-100 5.86989e-99 3.56109e-98 2.13125e-97 1.2581e-96 7.32402e-96 4.20398e-95 2.37887e-94 1.32679e-93 7.29237e-93 3.94902e-92 2.10658e-91 1.10674e-90 5.72534e-90 2.91577e-89 1.46152e-88 7.20873e-88 3.49796e-87 1.66943e-86 7.83459e-86 3.61449e-85 1.63889e-84 7.30144e-84 3.19526e-83 1.37316e-82 5.79333e-82 2.39883e-81 9.74545e-81 3.88329e-80 1.51724e-79 5.8106e-79 2.18048e-78 8.01485e-78 2.88466e-77 1.01622e-76 3.50279e-76 1.18086e-75 3.89197e-75 1.25356e-74 3.94406e-74 1.21164e-73 3.63282e-73 1.06256e-72 3.03041e-72 8.42326e-72 2.28074e-71 6.01278e-71 1.54262e-70 3.84947e-70 9.33857e-70 2.20125e-69 5.03898e-69 1.11962e-68 2.41343e-68 5.04441e-68 1.02184e-67 2.00517e-67 3.80995e-67 7.00664e-67 1.24671e-66 2.14561e-66 3.57084e-66 5.74592e-66 8.93932e-66 1.34477e-65 1.9566e-65 2.75458e-65 3.75486e-65 4.96026e-65 6.35756e-65 7.9173e-65 9.59644e-65 1.13435e-64 1.3105e-64 1.48316e-64 1.64821e-64 1.80257e-64 1.9441e-64 2.07138e-64 2.18348e-64 2.27972e-64 2.35962e-64 2.42286e-64 2.46939e-64 2.49948e-64 2.51389e-64 2.51389e-64 2.50127e-64 2.47832e-64 2.4476e-64 2.41167e-64 2.37274e-64 2.33235e-64 2.29123e-64 2.24934e-64 2.20622e-64 2.16142e-64 2.11493e-64 2.06749e-64 2.02055e-64 1.97596e-64 1.93551e-64 1.90049e-64 1.87145e-64 1.84826e-64 1.83043e-64 1.81765e-64 1.81021e-64 1.80917e-64 1.81626e-64 1.83335e-64 1.8618e-64 1.90178e-64 1.95182e-64 2.0086e-64 2.06722e-64 2.12172e-64 2.1659e-64 2.19415e-64 2.20235e-64 2.18852e-64 2.15326e-64 2.09976e-64 2.03346e-64 1.96127e-64 1.8906e-64 1.82817e-64 1.77905e-64 1.74597e-64 1.72913e-64 1.72649e-64 1.73448e-64 1.74885e-64 1.76558e-64 1.78137e-64 1.79397e-64 1.80206e-64 1.80508e-64 1.80285e-64 1.79549e-64 1.78329e-64 1.76682e-64 1.74709e-64 1.72566e-64 1.70464e-64 1.68659e-64 1.67419e-64 1.66983e-64 1.67518e-64 1.69079e-64 1.71601e-64 1.74912e-64 1.78787e-64 1.83006e-64 1.87417e-64 1.91973e-64 1.96735e-64 2.01832e-64 2.07392e-64 2.13467e-64 2.19962e-64 2.26594e-64 2.3289e-64 2.38209e-64 2.41805e-64 2.42907e-64 2.40818e-64 2.35008e-64 2.25206e-64 2.1146e-64 1.94159e-64 1.74015e-64 1.51988e-64 1.29182e-64 1.0671e-64 8.55724e-65 6.6554e-65 5.01623e-65 3.6615e-65 2.587e-65 1.76859e-65 1.16962e-65 7.48148e-66 4.62856e-66 2.7698e-66 1.60346e-66 8.98206e-67 4.86992e-67 2.55647e-67 1.29987e-67 6.4044e-68 3.05892e-68 1.417e-68 6.36933e-69 2.7794e-69 1.17804e-69 4.85223e-70 1.94316e-70 7.56978e-71 2.86999e-71 1.05953e-71 3.81062e-72 1.33578e-72 4.56595e-73 1.52261e-73 4.95565e-74 1.57493e-74 4.88938e-75 1.48342e-75 4.40014e-76 1.27655e-76 3.62365e-77 1.00682e-77 2.73919e-78 7.29972e-79 1.90615e-79 4.87893e-80 1.22447e-80 3.01419e-81 7.27988e-82 1.72561e-82 4.01563e-83 9.1766e-84 2.0599e-84 4.54294e-85 9.83004e-86 2.00804e-86 0 
0 4.11065e-122 3.49959e-121 2.90987e-120 2.39451e-119 1.95021e-118 1.57191e-117 1.25376e-116 9.8945e-116 7.72549e-115 5.96711e-114 4.55891e-113 3.44485e-112 2.57422e-111 1.90211e-110 1.3896e-109 1.0036e-108 7.16457e-108 5.05512e-107 3.52474e-106 2.42841e-105 1.65295e-104 1.11143e-103 7.38123e-103 4.84107e-102 3.13514e-101 2.00453e-100 1.26516e-99 7.88109e-99 4.84472e-98 2.93849e-97 1.75825e-96 1.03769e-95 6.03957e-95 3.46597e-94 1.96085e-93 1.09341e-92 6.00847e-92 3.2531e-91 1.735e-90 9.11346e-90 4.71364e-89 2.40009e-88 1.20282e-87 5.93165e-87 2.87776e-86 1.3732e-85 6.44331e-85 2.97213e-84 1.34742e-83 6.00196e-83 2.62618e-82 1.12843e-81 4.76016e-81 1.97076e-80 8.00529e-80 3.18948e-79 1.24601e-78 4.77129e-78 1.79026e-77 6.57981e-77 2.36793e-76 8.34104e-76 2.87478e-75 9.69062e-75 3.19364e-74 1.02856e-73 3.2359e-73 9.94024e-73 2.98017e-72 8.7162e-72 2.48573e-71 6.90895e-71 1.87064e-70 4.93146e-70 1.26516e-69 3.15702e-69 7.65858e-69 1.80522e-68 4.13237e-68 9.18176e-68 1.97919e-67 4.13678e-67 8.37989e-67 1.6444e-66 3.1245e-66 5.74612e-66 1.02243e-65 1.75965e-65 2.92854e-65 4.71243e-65 7.33152e-65 1.10291e-64 1.60471e-64 2.25919e-64 3.07956e-64 4.06814e-64 5.21406e-64 6.4931e-64 7.86991e-64 9.30225e-64 1.07462e-63 1.21612e-63 1.35135e-63 1.47779e-63 1.59368e-63 1.69787e-63 1.7896e-63 1.86833e-63 1.93367e-63 1.98537e-63 2.0234e-63 2.04799e-63 2.05976e-63 2.05974e-63 2.04942e-63 2.03065e-63 2.00554e-63 1.97617e-63 1.94434e-63 1.91133e-63 1.87772e-63 1.84347e-63 1.80822e-63 1.77158e-63 1.73357e-63 1.69478e-63 1.65639e-63 1.61992e-63 1.58685e-63 1.55822e-63 1.53448e-63 1.51553e-63 1.50096e-63 1.49054e-63 1.48447e-63 1.48366e-63 1.48948e-63 1.50348e-63 1.52677e-63 1.55948e-63 1.60041e-63 1.64684e-63 1.69476e-63 1.73932e-63 1.77542e-63 1.79849e-63 1.80516e-63 1.79382e-63 1.76496e-63 1.72118e-63 1.66692e-63 1.60787e-63 1.55006e-63 1.499e-63 1.45883e-63 1.43179e-63 1.41803e-63 1.4159e-63 1.42246e-63 1.43425e-63 1.44796e-63 1.46091e-63 1.47124e-63 1.47788e-63 1.48036e-63 1.47856e-63 1.47254e-63 1.46256e-63 1.44908e-63 1.43293e-63 1.41536e-63 1.39812e-63 1.3833e-63 1.3731e-63 1.36948e-63 1.37379e-63 1.3865e-63 1.40707e-63 1.43412e-63 1.46579e-63 1.50028e-63 1.53635e-63 1.57362e-63 1.61257e-63 1.65427e-63 1.69976e-63 1.74945e-63 1.80256e-63 1.8568e-63 1.90828e-63 1.95176e-63 1.98112e-63 1.99009e-63 1.97292e-63 1.92531e-63 1.84501e-63 1.73241e-63 1.59071e-63 1.42572e-63 1.2453e-63 1.05848e-63 8.74384e-64 7.01213e-64 5.45392e-64 4.11082e-64 3.00073e-64 2.12022e-64 1.44952e-64 9.58638e-65 6.13211e-65 3.79385e-65 2.27035e-65 1.31436e-65 7.36279e-66 3.99207e-66 2.0957e-66 1.06561e-66 5.25036e-67 2.50779e-67 1.16173e-67 5.2221e-68 2.27887e-68 9.65934e-69 3.97874e-69 1.59344e-69 6.20772e-70 2.35371e-70 8.68988e-71 3.12553e-71 1.0957e-71 3.7456e-72 1.24914e-72 4.06594e-73 1.29229e-73 4.0123e-74 1.21743e-74 3.61155e-75 1.04788e-75 2.97487e-76 8.2666e-77 2.2493e-77 5.99497e-78 1.56565e-78 4.00794e-79 1.00602e-79 2.47679e-80 5.98285e-81 1.41838e-81 3.3012e-82 7.54518e-83 1.69397e-83 3.73654e-84 8.08653e-85 1.65215e-85 0 
0 3.38163e-121 2.87816e-120 2.3925e-119 1.96823e-118 1.60259e-117 1.29137e-116 1.02972e-115 8.12424e-115 6.3416e-114 4.89691e-113 3.74029e-112 2.82554e-111 2.11087e-110 1.55934e-109 1.13889e-108 8.22323e-108 5.86901e-107 4.13997e-106 2.88592e-105 1.9878e-104 1.35271e-103 9.09329e-103 6.03761e-102 3.9589e-101 2.56324e-100 1.63849e-99 1.0339e-98 6.43901e-98 3.95735e-97 2.39973e-96 1.43557e-95 8.47064e-95 4.92906e-94 2.82808e-93 1.59963e-92 8.9181e-92 4.89964e-91 2.65224e-90 1.41426e-89 7.4273e-89 3.84081e-88 1.9553e-87 9.79733e-87 4.83067e-86 2.34322e-85 1.11794e-84 5.24472e-84 2.41887e-83 1.09642e-82 4.88319e-82 2.13635e-81 9.17828e-81 3.87121e-80 1.60251e-79 6.50862e-79 2.59285e-78 1.01281e-77 3.87786e-77 1.45488e-76 5.34662e-76 1.92394e-75 6.77646e-75 2.33534e-74 7.87156e-74 2.59395e-73 8.3536e-73 2.62792e-72 8.07213e-72 2.41996e-71 7.0774e-71 2.01828e-70 5.60949e-70 1.51876e-69 4.00369e-69 1.02712e-68 2.56298e-68 6.21743e-68 1.46551e-67 3.35472e-67 7.45389e-67 1.60674e-66 3.35834e-66 6.80306e-66 1.335e-65 2.53663e-65 4.66508e-65 8.30091e-65 1.42865e-64 2.3777e-64 3.82612e-64 5.9527e-64 8.95502e-64 1.30294e-63 1.83435e-63 2.50046e-63 3.30311e-63 4.23346e-63 5.27182e-63 6.38946e-63 7.552e-63 8.72377e-63 9.87179e-63 1.09687e-62 1.19939e-62 1.29333e-62 1.37776e-62 1.45207e-62 1.51583e-62 1.56872e-62 1.61057e-62 1.64134e-62 1.66122e-62 1.67074e-62 1.67071e-62 1.66235e-62 1.64716e-62 1.62683e-62 1.60307e-62 1.57732e-62 1.55061e-62 1.52341e-62 1.49569e-62 1.46716e-62 1.43751e-62 1.40674e-62 1.37533e-62 1.34426e-62 1.31474e-62 1.28796e-62 1.26479e-62 1.24558e-62 1.23025e-62 1.21848e-62 1.21005e-62 1.20517e-62 1.20453e-62 1.20926e-62 1.22062e-62 1.23949e-62 1.26598e-62 1.29912e-62 1.3367e-62 1.37549e-62 1.41155e-62 1.44075e-62 1.45941e-62 1.46478e-62 1.45558e-62 1.43218e-62 1.39671e-62 1.35277e-62 1.30495e-62 1.25813e-62 1.21679e-62 1.18427e-62 1.16239e-62 1.15127e-62 1.14956e-62 1.15489e-62 1.16447e-62 1.1756e-62 1.1861e-62 1.19449e-62 1.19989e-62 1.20191e-62 1.20046e-62 1.1956e-62 1.18751e-62 1.17659e-62 1.16349e-62 1.14924e-62 1.13525e-62 1.1232e-62 1.11489e-62 1.1119e-62 1.11535e-62 1.12559e-62 1.14221e-62 1.16408e-62 1.1897e-62 1.21762e-62 1.24682e-62 1.27699e-62 1.30854e-62 1.3423e-62 1.37914e-62 1.41937e-62 1.46238e-62 1.50629e-62 1.54795e-62 1.58313e-62 1.60688e-62 1.61409e-62 1.60013e-62 1.5615e-62 1.49638e-62 1.40508e-62 1.29018e-62 1.15639e-62 1.01009e-62 8.58593e-63 7.09295e-63 5.68844e-63 4.42455e-63 3.33508e-63 2.43456e-63 1.72024e-63 1.17611e-63 7.77837e-64 4.97571e-64 3.07847e-64 1.84229e-64 1.06657e-64 5.9748e-65 3.23957e-65 1.7007e-65 8.6478e-66 4.26094e-66 2.03525e-66 9.42854e-67 4.23833e-67 1.84962e-67 7.84017e-68 3.22954e-68 1.29344e-68 5.03924e-69 1.91077e-69 7.05492e-70 2.53763e-70 8.89658e-71 3.04146e-71 1.01439e-71 3.30208e-72 1.04959e-72 3.25907e-73 9.88977e-74 2.93411e-74 8.51411e-75 2.41736e-75 6.71814e-76 1.82819e-76 4.87318e-77 1.27285e-77 3.2588e-78 8.1809e-79 2.0144e-79 4.86661e-80 1.15392e-80 2.68609e-81 6.14026e-82 1.37877e-82 3.04178e-83 6.58405e-84 1.34539e-84 0 
0 2.75331e-120 2.34276e-119 1.94691e-118 1.60122e-117 1.3034e-116 1.05e-115 8.37031e-115 6.60222e-114 5.15218e-113 3.9774e-112 3.03717e-111 2.29378e-110 1.71317e-109 1.26523e-108 9.2385e-108 6.66885e-107 4.75844e-106 3.35574e-105 2.33867e-104 1.61047e-103 1.09567e-102 7.36362e-102 4.88801e-101 3.20435e-100 2.07421e-99 1.32559e-98 8.36263e-98 5.207e-97 3.19946e-96 1.93972e-95 1.16013e-94 6.84395e-94 3.98165e-93 2.28402e-92 1.29164e-91 7.19956e-91 3.95468e-90 2.1403e-89 1.14107e-88 5.99143e-88 3.09772e-87 1.57672e-86 7.89901e-86 3.89401e-85 1.88855e-84 9.00876e-84 4.2257e-83 1.94859e-82 8.83121e-82 3.93263e-81 1.72024e-80 7.38956e-80 3.11635e-79 1.28986e-78 5.23817e-78 2.08649e-77 8.14924e-77 3.11987e-76 1.17038e-75 4.30066e-75 1.54742e-74 5.44982e-74 1.87799e-73 6.32953e-73 2.08566e-72 6.71625e-72 2.11271e-71 6.48922e-71 1.94532e-70 5.68904e-70 1.6223e-69 4.50879e-69 1.22071e-68 3.21793e-68 8.25525e-68 2.05992e-67 4.99705e-67 1.17786e-66 2.69625e-66 5.99087e-66 1.29139e-65 2.69924e-65 5.46801e-65 1.07303e-64 2.03892e-64 3.74982e-64 6.67248e-64 1.14841e-63 1.91134e-63 3.07573e-63 4.78533e-63 7.19897e-63 1.04745e-62 1.47467e-62 2.01016e-62 2.65541e-62 3.40328e-62 4.23791e-62 5.13617e-62 6.0704e-62 7.01188e-62 7.93406e-62 8.81496e-62 9.63804e-62 1.0392e-61 1.10693e-61 1.16652e-61 1.21764e-61 1.26004e-61 1.29357e-61 1.31821e-61 1.33414e-61 1.34175e-61 1.34172e-61 1.33501e-61 1.32284e-61 1.30655e-61 1.28751e-61 1.26689e-61 1.24549e-61 1.2237e-61 1.20149e-61 1.17863e-61 1.15487e-61 1.1302e-61 1.10504e-61 1.08013e-61 1.05647e-61 1.03502e-61 1.01645e-61 1.00106e-61 9.88783e-62 9.79359e-62 9.72623e-62 9.68723e-62 9.68228e-62 9.72043e-62 9.81158e-62 9.96294e-62 1.01754e-61 1.0441e-61 1.07422e-61 1.10531e-61 1.13419e-61 1.15758e-61 1.17252e-61 1.1768e-61 1.1694e-61 1.15063e-61 1.12218e-61 1.08695e-61 1.0486e-61 1.01107e-61 9.77926e-62 9.51864e-62 9.34333e-62 9.25433e-62 9.24083e-62 9.28379e-62 9.36074e-62 9.45015e-62 9.53458e-62 9.60198e-62 9.64542e-62 9.66177e-62 9.65023e-62 9.61128e-62 9.54647e-62 9.45882e-62 9.35366e-62 9.23921e-62 9.12673e-62 9.02981e-62 8.96277e-62 8.93841e-62 8.96558e-62 9.04734e-62 9.18025e-62 9.35532e-62 9.56055e-62 9.78423e-62 1.00183e-61 1.02602e-61 1.05131e-61 1.07838e-61 1.10791e-61 1.14016e-61 1.17464e-61 1.20983e-61 1.24322e-61 1.2714e-61 1.29041e-61 1.29615e-61 1.28491e-61 1.25388e-61 1.20159e-61 1.12829e-61 1.03605e-61 9.2865e-62 8.11194e-62 6.89554e-62 5.69673e-62 4.56889e-62 3.5539e-62 2.67891e-62 1.95564e-62 1.38188e-62 9.44802e-63 6.24875e-63 3.99732e-63 2.47319e-63 1.48009e-63 8.5689e-64 4.80028e-64 2.60278e-64 1.36641e-64 6.94812e-65 3.42353e-65 1.63529e-65 7.57581e-66 3.40557e-66 1.48624e-66 6.30003e-67 2.59521e-67 1.03943e-67 4.04975e-68 1.53564e-68 5.67015e-69 2.03964e-69 7.15111e-70 2.44489e-70 8.15476e-71 2.65476e-71 8.43902e-72 2.62059e-72 7.95297e-73 2.35972e-73 6.848e-74 1.94451e-74 5.40461e-75 1.4709e-75 3.92127e-76 1.02433e-76 2.62288e-77 6.58534e-78 1.62174e-78 3.91852e-79 9.29253e-80 2.16343e-80 4.94624e-81 1.11084e-81 2.45106e-82 5.30628e-83 1.08446e-83 0 
0 2.21848e-119 1.88718e-118 1.56788e-117 1.28914e-116 1.04908e-115 8.449e-115 6.73351e-114 5.30976e-113 4.14249e-112 3.1971e-111 2.44069e-110 1.84283e-109 1.37601e-108 1.01596e-107 7.41655e-107 5.35233e-106 3.81811e-105 2.69194e-104 1.8756e-103 1.29127e-102 8.78295e-102 5.90134e-101 3.91642e-100 2.56683e-99 1.66116e-98 1.06137e-97 6.69427e-97 4.16727e-96 2.56003e-95 1.55173e-94 9.27876e-94 5.47265e-93 3.1832e-92 1.82563e-91 1.03221e-90 5.75234e-90 3.15912e-89 1.70941e-88 9.11174e-88 4.78344e-87 2.47272e-86 1.25838e-85 6.30309e-85 3.10674e-84 1.50649e-83 7.18509e-83 3.36975e-82 1.55365e-81 7.04029e-81 3.13466e-80 1.371e-79 5.88857e-79 2.48303e-78 1.0276e-77 4.17263e-77 1.66188e-76 6.49011e-76 2.48443e-75 9.31911e-75 3.42408e-74 1.23191e-73 4.33829e-73 1.49485e-72 5.03786e-72 1.65993e-71 5.34501e-71 1.68128e-70 5.16383e-70 1.54794e-69 4.52674e-69 1.29082e-68 3.58743e-68 9.71247e-68 2.56028e-67 6.56806e-67 1.63892e-66 3.97576e-66 9.37135e-66 2.14523e-65 4.76662e-65 1.02751e-64 2.14773e-64 4.35088e-64 8.53831e-64 1.62245e-63 2.98396e-63 5.30985e-63 9.13911e-63 1.5211e-62 2.44781e-62 3.80848e-62 5.72952e-62 8.3366e-62 1.17369e-61 1.59989e-61 2.11343e-61 2.70861e-61 3.3728e-61 4.08754e-61 4.8308e-61 5.57968e-61 6.31305e-61 7.01339e-61 7.66756e-61 8.26655e-61 8.80451e-61 9.27765e-61 9.68335e-61 1.00197e-60 1.02857e-60 1.04811e-60 1.06074e-60 1.06676e-60 1.06673e-60 1.06141e-60 1.05175e-60 1.03883e-60 1.02373e-60 1.00738e-60 9.90404e-61 9.73122e-61 9.55512e-61 9.37377e-61 9.18525e-61 8.9896e-61 8.78992e-61 8.59232e-61 8.40462e-61 8.23441e-61 8.08713e-61 7.9651e-61 7.86774e-61 7.79307e-61 7.73974e-61 7.70893e-61 7.70514e-61 7.73555e-61 7.808e-61 7.92819e-61 8.09682e-61 8.3076e-61 8.5466e-61 8.79316e-61 9.02225e-61 9.20773e-61 9.32607e-61 9.35992e-61 9.30102e-61 9.15189e-61 8.92602e-61 8.6463e-61 8.34193e-61 8.04406e-61 7.78107e-61 7.5743e-61 7.43525e-61 7.36475e-61 7.35418e-61 7.38844e-61 7.44968e-61 7.5208e-61 7.58796e-61 7.64158e-61 7.67618e-61 7.68925e-61 7.68016e-61 7.64928e-61 7.59783e-61 7.52822e-61 7.44464e-61 7.35362e-61 7.26412e-61 7.18692e-61 7.13339e-61 7.11372e-61 7.13496e-61 7.19955e-61 7.30477e-61 7.44352e-61 7.60625e-61 7.78369e-61 7.96938e-61 8.16135e-61 8.36208e-61 8.57695e-61 8.81131e-61 9.06728e-61 9.34082e-61 9.62004e-61 9.88489e-61 1.01084e-60 1.0259e-60 1.03043e-60 1.02148e-60 9.96795e-61 9.55232e-61 8.96977e-61 8.23669e-61 7.38307e-61 6.4495e-61 5.48262e-61 4.52965e-61 3.63302e-61 2.82605e-61 2.13035e-61 1.55523e-61 1.09898e-61 7.514e-62 4.96974e-62 3.1792e-62 1.96704e-62 1.1772e-62 6.81539e-63 3.81801e-63 2.07019e-63 1.08682e-63 5.52648e-64 2.72307e-64 1.30072e-64 6.02594e-65 2.70889e-65 1.18222e-65 5.01144e-66 2.06444e-66 8.26868e-67 3.22169e-67 1.22169e-67 4.51112e-68 1.62279e-68 5.6899e-69 1.94543e-69 6.48923e-70 2.11269e-70 6.71634e-71 2.0858e-71 6.33049e-72 1.87847e-72 5.4519e-73 1.54823e-73 4.30361e-74 1.17138e-74 3.12313e-75 8.15934e-76 2.08951e-76 5.24684e-77 1.29228e-77 3.12289e-78 7.40676e-79 1.72465e-79 3.94363e-80 8.85802e-81 1.95483e-81 4.23267e-82 8.6517e-83 0 
0 1.76884e-118 1.50428e-117 1.24943e-116 1.02702e-115 8.35555e-115 6.72751e-114 5.36013e-113 4.22566e-112 3.29585e-111 2.54302e-110 1.94086e-109 1.46505e-108 1.09366e-107 8.07286e-107 5.89173e-106 4.25085e-105 3.03162e-104 2.13691e-103 1.48852e-102 1.02454e-101 6.96704e-101 4.68012e-100 3.10524e-99 2.03471e-98 1.31649e-97 8.40962e-97 5.30292e-96 3.30042e-95 2.02707e-94 1.22842e-93 7.34394e-93 4.33058e-92 2.5184e-91 1.44406e-90 8.16306e-90 4.54828e-89 2.49739e-88 1.35109e-87 7.20045e-87 3.77938e-86 1.95334e-85 9.93893e-85 4.97748e-84 2.45296e-83 1.18927e-82 5.67126e-82 2.65937e-81 1.22595e-80 5.55452e-80 2.47279e-79 1.08138e-78 4.64401e-78 1.958e-77 8.10223e-77 3.28958e-76 1.31003e-75 5.11554e-75 1.95805e-74 7.34399e-74 2.69814e-73 9.70656e-73 3.41801e-72 1.17767e-71 3.96866e-71 1.30756e-70 4.21017e-70 1.32425e-69 4.06712e-69 1.21914e-68 3.56512e-68 1.01659e-67 2.82525e-67 7.64888e-67 2.01629e-66 5.17253e-66 1.2907e-65 3.13107e-65 7.38042e-65 1.68951e-64 3.75411e-64 8.0927e-64 1.69161e-63 3.42697e-63 6.72541e-63 1.278e-62 2.35055e-62 4.18287e-62 7.19964e-62 1.19833e-61 1.92846e-61 3.00052e-61 4.51412e-61 6.56828e-61 9.24739e-61 1.26054e-60 1.66515e-60 2.13406e-60 2.65729e-60 3.22029e-60 3.80566e-60 4.39534e-60 4.97267e-60 5.52385e-60 6.03852e-60 6.50961e-60 6.93255e-60 7.30439e-60 7.62312e-60 7.88732e-60 8.09613e-60 8.24951e-60 8.34857e-60 8.39583e-60 8.39555e-60 8.35371e-60 8.27785e-60 8.17642e-60 8.05787e-60 7.92945e-60 7.79623e-60 7.66055e-60 7.5223e-60 7.37991e-60 7.23187e-60 7.07822e-60 6.9214e-60 6.76622e-60 6.61881e-60 6.48515e-60 6.36951e-60 6.27371e-60 6.19731e-60 6.13874e-60 6.09696e-60 6.07286e-60 6.07e-60 6.09398e-60 6.15098e-60 6.24546e-60 6.37796e-60 6.54353e-60 6.73123e-60 6.92484e-60 7.10469e-60 7.25027e-60 7.34309e-60 7.36955e-60 7.32316e-60 7.2059e-60 7.02837e-60 6.80856e-60 6.56942e-60 6.33541e-60 6.12882e-60 5.96643e-60 5.85728e-60 5.802e-60 5.79381e-60 5.82086e-60 5.8691e-60 5.92511e-60 5.97799e-60 6.02023e-60 6.0475e-60 6.05784e-60 6.05075e-60 6.02651e-60 5.98609e-60 5.93135e-60 5.86559e-60 5.79395e-60 5.72345e-60 5.66257e-60 5.62026e-60 5.60455e-60 5.62097e-60 5.67148e-60 5.75395e-60 5.86279e-60 5.99053e-60 6.12985e-60 6.2757e-60 6.4265e-60 6.5842e-60 6.753e-60 6.93712e-60 7.1382e-60 7.35305e-60 7.57234e-60 7.78031e-60 7.95575e-60 8.07392e-60 8.10928e-60 8.03862e-60 7.84433e-60 7.51728e-60 7.05896e-60 6.48222e-60 5.81063e-60 5.0761e-60 4.3153e-60 3.56538e-60 2.85975e-60 2.22463e-60 1.67704e-60 1.22434e-60 8.65185e-61 5.91564e-61 3.91266e-61 2.50301e-61 1.54869e-61 9.26836e-62 5.36596e-62 3.00605e-62 1.62994e-62 8.55698e-63 4.35122e-63 2.14399e-63 1.02412e-63 4.74453e-64 2.13287e-64 9.3084e-65 3.94589e-65 1.62552e-65 6.51083e-66 2.53685e-66 9.62024e-67 3.55241e-67 1.27796e-67 4.48104e-68 1.53218e-68 5.11106e-69 1.66409e-69 5.29058e-70 1.64313e-70 4.98735e-71 1.48003e-71 4.29587e-72 1.22005e-72 3.39169e-73 9.23264e-74 2.46185e-74 6.43243e-75 1.64745e-75 4.13732e-76 1.01914e-76 2.46314e-77 5.84276e-78 1.36066e-78 3.11178e-79 6.99057e-80 1.54295e-80 3.34136e-81 6.83084e-82 0 
0 1.39542e-117 1.1864e-116 9.85138e-116 8.09561e-115 6.58458e-114 5.3002e-113 4.22181e-112 3.32739e-111 2.59456e-110 2.0014e-109 1.5271e-108 1.15244e-107 8.60072e-107 6.34706e-106 4.63105e-105 3.34046e-104 2.38176e-103 1.67844e-102 1.16888e-101 8.04342e-101 5.46837e-100 3.67253e-99 2.43615e-98 1.59592e-97 1.03236e-96 6.59314e-96 4.15658e-95 2.5864e-94 1.58819e-93 9.6225e-93 5.7515e-92 3.39086e-91 1.97152e-90 1.13025e-89 6.38791e-89 3.55852e-88 1.95356e-87 1.05669e-86 5.63045e-86 2.9548e-85 1.5269e-84 7.76781e-84 3.88953e-83 1.9165e-82 9.29033e-82 4.42959e-81 2.07683e-80 9.57264e-80 4.33657e-79 1.93032e-78 8.4404e-78 3.62432e-77 1.5279e-76 6.32177e-76 2.56642e-75 1.02194e-74 3.99018e-74 1.52717e-73 5.72741e-73 2.10405e-72 7.56876e-72 2.66504e-71 9.18176e-71 3.09402e-70 1.01934e-69 3.282e-69 1.03227e-68 3.17027e-68 9.50284e-68 2.77885e-67 7.92372e-67 2.2021e-66 5.96181e-66 1.57157e-65 4.0317e-65 1.00604e-64 2.44057e-64 5.75294e-64 1.31699e-63 2.92644e-63 6.30872e-63 1.31875e-62 2.67171e-62 5.24344e-62 9.96432e-62 1.83275e-61 3.26156e-61 5.61409e-61 9.34464e-61 1.50387e-60 2.33997e-60 3.52045e-60 5.12253e-60 7.21205e-60 9.83104e-60 1.29865e-59 1.66433e-59 2.07234e-59 2.5113e-59 2.96764e-59 3.42726e-59 3.87713e-59 4.30649e-59 4.70729e-59 5.07401e-59 5.40312e-59 5.69237e-59 5.94022e-59 6.14559e-59 6.30786e-59 6.42703e-59 6.50395e-59 6.54063e-59 6.54036e-59 6.50781e-59 6.44884e-59 6.37001e-59 6.27789e-59 6.17811e-59 6.0746e-59 5.96918e-59 5.86174e-59 5.75108e-59 5.63602e-59 5.51659e-59 5.3947e-59 5.27407e-59 5.15949e-59 5.0556e-59 4.96573e-59 4.8913e-59 4.83196e-59 4.7865e-59 4.75408e-59 4.73544e-59 4.73329e-59 4.75202e-59 4.79641e-59 4.86991e-59 4.97295e-59 5.10168e-59 5.24759e-59 5.39806e-59 5.53782e-59 5.65092e-59 5.72299e-59 5.74345e-59 5.70728e-59 5.61602e-59 5.47791e-59 5.30695e-59 5.12097e-59 4.93901e-59 4.77839e-59 4.65217e-59 4.56735e-59 4.52445e-59 4.51818e-59 4.53932e-59 4.57695e-59 4.6206e-59 4.66182e-59 4.69475e-59 4.71602e-59 4.72412e-59 4.71864e-59 4.69981e-59 4.66837e-59 4.62576e-59 4.57456e-59 4.51874e-59 4.46376e-59 4.41625e-59 4.38315e-59 4.37072e-59 4.3833e-59 4.42239e-59 4.48636e-59 4.57088e-59 4.67012e-59 4.7784e-59 4.89178e-59 5.00903e-59 5.13166e-59 5.26292e-59 5.40608e-59 5.56242e-59 5.72946e-59 5.89992e-59 6.06156e-59 6.19787e-59 6.28963e-59 6.31694e-59 6.26176e-59 6.11037e-59 5.85565e-59 5.49873e-59 5.04962e-59 4.52661e-59 3.95456e-59 3.362e-59 2.77787e-59 2.22819e-59 1.7334e-59 1.30678e-59 9.54055e-60 6.74205e-60 4.60993e-60 3.0491e-60 1.9506e-60 1.2069e-60 7.22292e-61 4.18175e-61 2.34264e-61 1.27022e-61 6.66849e-62 3.39091e-62 1.67081e-62 7.98091e-63 3.69739e-63 1.66214e-63 7.25403e-64 3.07505e-64 1.26679e-64 5.07404e-65 1.97706e-65 7.49757e-66 2.76866e-66 9.96043e-67 3.49264e-67 1.19427e-67 3.98404e-68 1.29722e-68 4.12443e-69 1.28103e-69 3.88854e-70 1.15404e-70 3.34991e-71 9.51472e-72 2.64529e-72 7.20149e-73 1.92044e-73 5.01833e-74 1.28542e-74 3.2285e-75 7.95365e-76 1.92254e-76 4.56102e-77 1.06231e-77 2.42979e-78 5.45929e-79 1.20514e-79 2.61021e-80 5.33689e-81 0 
0 1.08909e-116 9.25714e-116 7.68467e-115 6.31338e-114 5.13364e-113 4.13119e-112 3.28979e-111 2.59215e-110 2.02073e-109 1.55836e-108 1.18875e-107 8.9687e-107 6.69174e-106 4.93706e-105 3.60138e-104 2.5971e-103 1.8513e-102 1.3043e-101 9.08117e-101 6.24755e-100 4.24645e-99 2.85124e-98 1.89092e-97 1.23846e-96 8.00948e-96 5.11413e-95 3.22346e-94 2.00534e-93 1.23113e-92 7.4576e-92 4.4566e-91 2.62691e-90 1.52703e-89 8.75266e-89 4.94584e-88 2.75467e-87 1.51198e-86 8.17689e-86 4.3562e-85 2.28569e-84 1.18094e-83 6.00681e-83 3.00727e-82 1.48155e-81 7.18082e-81 3.42329e-80 1.60479e-79 7.39587e-79 3.35001e-78 1.49099e-77 6.51861e-77 2.79877e-76 1.17974e-75 4.88073e-75 1.98121e-74 7.88835e-74 3.07974e-73 1.17861e-72 4.41987e-72 1.62359e-71 5.84004e-71 2.05621e-70 7.08382e-70 2.38695e-69 7.86364e-69 2.53178e-68 7.96285e-68 2.44546e-67 7.3301e-67 2.14347e-66 6.11193e-66 1.69858e-65 4.59865e-65 1.21225e-64 3.10995e-64 7.7605e-64 1.88268e-63 4.43801e-63 1.016e-62 2.25773e-62 4.86732e-62 1.01749e-61 2.06148e-61 4.046e-61 7.68914e-61 1.41434e-60 2.51708e-60 4.33282e-60 7.21229e-60 1.16075e-59 1.80615e-59 2.71741e-59 3.95414e-59 5.56714e-59 7.58886e-59 1.00246e-58 1.28472e-58 1.59962e-58 1.93838e-58 2.29049e-58 2.64505e-58 2.99201e-58 3.32305e-58 3.63195e-58 3.91449e-58 4.16796e-58 4.39063e-58 4.58137e-58 4.73938e-58 4.86418e-58 4.9558e-58 5.01492e-58 5.04308e-58 5.04284e-58 5.01778e-58 4.97241e-58 4.91178e-58 4.84093e-58 4.7642e-58 4.6846e-58 4.60353e-58 4.52091e-58 4.4358e-58 4.34729e-58 4.25542e-58 4.16164e-58 4.06884e-58 3.9807e-58 3.90079e-58 3.83167e-58 3.77444e-58 3.72883e-58 3.69389e-58 3.66902e-58 3.65473e-58 3.65314e-58 3.66762e-58 3.70182e-58 3.75842e-58 3.83773e-58 3.93678e-58 4.04903e-58 4.16478e-58 4.27226e-58 4.35922e-58 4.41459e-58 4.43026e-58 4.40235e-58 4.33206e-58 4.22572e-58 4.09412e-58 3.95098e-58 3.81094e-58 3.68735e-58 3.59025e-58 3.52504e-58 3.49209e-58 3.48734e-58 3.50369e-58 3.53274e-58 3.56641e-58 3.59821e-58 3.62361e-58 3.64004e-58 3.64632e-58 3.64213e-58 3.62765e-58 3.60344e-58 3.57062e-58 3.53115e-58 3.48811e-58 3.44569e-58 3.40898e-58 3.38336e-58 3.37363e-58 3.38315e-58 3.4131e-58 3.46221e-58 3.52716e-58 3.60347e-58 3.68676e-58 3.77399e-58 3.86422e-58 3.95859e-58 4.0596e-58 4.16977e-58 4.29007e-58 4.41859e-58 4.54974e-58 4.67407e-58 4.77889e-58 4.8494e-58 4.87028e-58 4.82763e-58 4.71088e-58 4.51454e-58 4.23945e-58 3.8933e-58 3.49019e-58 3.04924e-58 2.59246e-58 2.14213e-58 1.71832e-58 1.33681e-58 1.00783e-58 7.3582e-59 5.19997e-59 3.55559e-59 2.35177e-59 1.50451e-59 9.30892e-60 5.57109e-60 3.2254e-60 1.80687e-60 9.79711e-61 5.1433e-61 2.61533e-61 1.28864e-61 6.15535e-62 2.85163e-62 1.28192e-62 5.59464e-63 2.37162e-63 9.77006e-64 3.91336e-64 1.52483e-64 5.78265e-65 2.13542e-65 7.6825e-66 2.69396e-66 9.21201e-67 3.07321e-67 1.00069e-67 3.18179e-68 9.88308e-69 3.00016e-69 8.90444e-70 2.58494e-70 7.34256e-71 2.04155e-71 5.55837e-72 1.4824e-72 3.87407e-73 9.92425e-74 2.49288e-74 6.14207e-75 1.48483e-75 3.52302e-76 8.20656e-77 1.87731e-77 4.21855e-78 9.3138e-79 2.01757e-79 4.12573e-80 0 