# vtk DataFile Version 3.0
Gray-Scott Simulation Output
ASCII
DATASET STRUCTURED_POINTS
DIMENSIONS 256 256 1
SPACING 1.0 1.0 1.0
ORIGIN 0 0 0
POINT_DATA 65536
SCALARS u double
LOOKUP_TABLE default
0 0 0 0 0 0 0 0 0 0 0 0 0 0 0 0 0 0 0 0 0 0 0 0 0 0 0 0 0 0 0 0 0 0 0 0 0 0 0 0 0 0 0 0 0 0 0 0 0 0 0 0 0 0 0 0 0 0 0 0 0 0 0 0 0 0 0 0 0 0 0 0 0 0 0 0 0 0 0 0 0 0 0 0 0 0 0 0 0 0 0 0 0 0 0 0 0 0 0 0 0 0 0 0 0 0 0 0 0 0 0 0 0 0 0 0 0 0 0 0 0 0 0 0 0 0 0 0 0 0 0 0 0 0 0 0 0 0 0 0 0 0 0 0 0 0 0 0 0 0 0 0 0 0 0 0 0 0 0 0 0 0 0 0 0 0 0 0 0 0 0 0 0 0 0 0 0 0 0 0 0 0 0 0 0 0 0 0 0 0 0 0 0 0 0 0 0 0 0 0 0 0 0 0 0 0 0 0 0 0 0 0 0 0 0 0 0 0 0 0 0 0 0 0 0 0 0 0 0 0 0 0 0 0 0 0 0 0 0 0 0 0 0 0 0 0 0 0 0 0 0 0 0 0 0 0 
0 3.92684e-94 1.99782e-93 9.69151e-93 4.65034e-92 2.21024e-91 1.04051e-90 4.85146e-90 2.24018e-89 1.02433e-88 4.63776e-88 2.07898e-87 9.22635e-87 4.05328e-86 1.76255e-85 7.58571e-85 3.23095e-84 1.36176e-83 5.67895e-83 2.34309e-82 9.56361e-82 3.86119e-81 1.54185e-80 6.08894e-80 2.37778e-79 9.18092e-79 3.50459e-78 1.32244e-77 4.93235e-77 1.81811e-76 6.62253e-76 2.38349e-75 8.47492e-75 2.97671e-74 1.03267e-73 3.53799e-73 1.19691e-72 3.99781e-72 1.31819e-71 4.29013e-71 1.37796e-70 4.36736e-70 1.36569e-69 4.21279e-69 1.28177e-68 3.84598e-68 1.13787e-67 3.31895e-67 9.54243e-67 2.70395e-66 7.55002e-66 2.07699e-65 5.6284e-65 1.50219e-64 3.948e-64 1.02156e-63 2.60204e-63 6.52291e-63 1.60905e-62 3.90498e-62 9.32197e-62 2.18853e-61 5.05213e-61 1.14654e-60 2.55747e-60 5.60608e-60 1.2074e-59 2.55446e-59 5.30793e-59 1.08304e-58 2.16957e-58 4.26615e-58 8.23285e-58 1.55897e-57 2.89619e-57 5.27766e-57 9.43223e-57 1.65303e-56 2.84038e-56 4.78464e-56 7.90039e-56 1.27859e-55 2.02797e-55 3.15221e-55 4.80148e-55 7.16701e-55 1.04837e-54 1.50288e-54 2.11159e-54 2.90824e-54 3.92701e-54 5.20002e-54 6.75438e-54 8.60895e-54 1.07715e-53 1.32364e-53 1.59832e-53 1.89767e-53 2.21683e-53 2.54986e-53 2.8901e-53 3.23059e-53 3.56452e-53 3.88553e-53 4.1881e-53 4.46765e-53 4.72068e-53 4.94478e-53 5.13852e-53 5.30137e-53 5.43362e-53 5.53618e-53 5.61055e-53 5.65868e-53 5.68288e-53 5.6857e-53 5.66986e-53 5.63807e-53 5.593e-53 5.53714e-53 5.47276e-53 5.4019e-53 5.32639e-53 5.24788e-53 5.16793e-53 5.08802e-53 5.00965e-53 4.93433e-53 4.86356e-53 4.7988e-53 4.74149e-53 4.69294e-53 4.65436e-53 4.6268e-53 4.61112e-53 4.60791e-53 4.61742e-53 4.6394e-53 4.67299e-53 4.71658e-53 4.76775e-53 4.82326e-53 4.8792e-53 4.93127e-53 4.97506e-53 5.00653e-53 5.02246e-53 5.02078e-53 5.0009e-53 4.9638e-53 4.91194e-53 4.84903e-53 4.77962e-53 4.70853e-53 4.64042e-53 4.5792e-53 4.52775e-53 4.48764e-53 4.45916e-53 4.44139e-53 4.43246e-53 4.42992e-53 4.43103e-53 4.43313e-53 4.4339e-53 4.43157e-53 4.42504e-53 4.41394e-53 4.39862e-53 4.38009e-53 4.35994e-53 4.34017e-53 4.32304e-53 4.31086e-53 4.30584e-53 4.30985e-53 4.32432e-53 4.35014e-53 4.38766e-53 4.43668e-53 4.49658e-53 4.56636e-53 4.64471e-53 4.73002e-53 4.82033e-53 4.91318e-53 5.0055e-53 5.09338e-53 5.17206e-53 5.23584e-53 5.27834e-53 5.29269e-53 5.27209e-53 5.21035e-53 5.1025e-53 4.94544e-53 4.7384e-53 4.48328e-53 4.18471e-53 3.84989e-53 3.48807e-53 3.10997e-53 2.72693e-53 2.35009e-53 1.98958e-53 1.65389e-53 1.34943e-53 1.08029e-53 8.48303e-54 6.53244e-54 4.93203e-54 3.65031e-54 2.64808e-54 1.88274e-54 1.31183e-54 8.9574e-55 5.9937e-55 3.93029e-55 2.52573e-55 1.59076e-55 9.82002e-56 5.9422e-56 3.52496e-56 2.05015e-56 1.16922e-56 6.5395e-57 3.58755e-57 1.93073e-57 1.0195e-57 5.28281e-58 2.68678e-58 1.34142e-58 6.57568e-59 3.16548e-59 1.49672e-59 6.95222e-60 3.17301e-60 1.4232e-60 6.2746e-61 2.71966e-61 1.15913e-61 4.85871e-62 2.00336e-62 8.12693e-63 3.24416e-63 1.27458e-63 4.92939e-64 1.87699e-64 7.03795e-65 2.59909e-65 9.45488e-66 3.38823e-66 1.19511e-66 4.11282e-67 1.26806e-67 0 
0 1.99548e-93 1.01521e-92 4.92474e-92 2.36304e-91 1.12311e-90 5.28724e-90 2.46522e-89 1.13833e-88 5.20507e-88 2.35667e-87 1.05645e-86 4.6885e-86 2.05977e-85 8.95706e-85 3.85507e-84 1.64202e-83 6.92095e-83 2.88636e-82 1.19094e-81 4.8612e-81 1.96275e-80 7.83812e-80 3.09554e-79 1.20891e-78 4.66809e-78 1.78206e-77 6.72505e-77 2.50847e-76 9.24728e-76 3.36867e-75 1.21252e-74 4.31179e-74 1.51462e-73 5.25508e-73 1.80063e-72 6.09233e-72 2.03516e-71 6.7114e-71 2.18457e-70 7.0177e-70 2.22454e-69 6.95727e-69 2.14648e-68 6.5319e-68 1.96024e-67 5.80059e-67 1.69222e-66 4.86627e-66 1.37917e-65 3.8517e-65 1.0598e-64 2.87253e-64 7.66821e-64 2.01576e-63 5.21702e-63 1.32913e-62 3.33266e-62 8.22279e-62 1.99604e-61 4.76606e-61 1.1192e-60 2.58424e-60 5.86613e-60 1.30882e-59 2.86968e-59 6.18202e-59 1.30823e-58 2.71905e-58 5.54933e-58 1.11192e-57 2.18695e-57 4.22138e-57 7.99545e-57 1.48569e-56 2.70793e-56 4.84064e-56 8.48509e-56 1.45827e-55 2.45692e-55 4.05757e-55 6.56779e-55 1.04187e-54 1.61967e-54 2.4674e-54 3.6834e-54 5.38843e-54 7.72508e-54 1.08545e-53 1.49501e-53 2.01875e-53 2.67314e-53 3.47207e-53 4.42518e-53 5.53639e-53 6.80267e-53 8.21343e-53 9.75044e-53 1.13886e-52 1.30974e-52 1.48424e-52 1.6588e-52 1.82991e-52 1.99433e-52 2.14922e-52 2.29226e-52 2.42166e-52 2.53621e-52 2.63519e-52 2.71835e-52 2.78584e-52 2.83816e-52 2.87606e-52 2.90057e-52 2.91285e-52 2.91423e-52 2.90608e-52 2.88979e-52 2.86673e-52 2.83817e-52 2.80527e-52 2.76906e-52 2.73048e-52 2.69038e-52 2.64954e-52 2.60872e-52 2.5687e-52 2.53023e-52 2.49408e-52 2.46101e-52 2.43174e-52 2.40695e-52 2.38726e-52 2.37319e-52 2.36519e-52 2.36356e-52 2.36843e-52 2.37968e-52 2.39686e-52 2.41915e-52 2.44531e-52 2.47369e-52 2.5023e-52 2.52893e-52 2.55132e-52 2.56742e-52 2.57556e-52 2.5747e-52 2.56454e-52 2.54557e-52 2.51906e-52 2.48691e-52 2.45143e-52 2.41511e-52 2.38032e-52 2.34906e-52 2.3228e-52 2.30235e-52 2.28784e-52 2.27881e-52 2.27429e-52 2.27304e-52 2.27364e-52 2.27474e-52 2.27514e-52 2.27396e-52 2.27061e-52 2.26491e-52 2.25705e-52 2.24754e-52 2.2372e-52 2.22706e-52 2.21826e-52 2.212e-52 2.20939e-52 2.21141e-52 2.21878e-52 2.23196e-52 2.25112e-52 2.27617e-52 2.30679e-52 2.34245e-52 2.38249e-52 2.4261e-52 2.47226e-52 2.51973e-52 2.56693e-52 2.61188e-52 2.65213e-52 2.68479e-52 2.70656e-52 2.71394e-52 2.70345e-52 2.67191e-52 2.61675e-52 2.53638e-52 2.43039e-52 2.29975e-52 2.1468e-52 1.97523e-52 1.78977e-52 1.59593e-52 1.3995e-52 1.20621e-52 1.02125e-52 8.49007e-53 6.92756e-53 5.54615e-53 4.3553e-53 3.35392e-53 2.53224e-53 1.87416e-53 1.35956e-53 9.66585e-54 6.7345e-54 4.59811e-54 3.0765e-54 2.01718e-54 1.29617e-54 8.16257e-55 5.03821e-55 3.04824e-55 1.80797e-55 1.05136e-55 5.99498e-56 3.35244e-56 1.8388e-56 9.89407e-57 5.22342e-57 2.70612e-57 1.37602e-57 6.86862e-58 3.36631e-58 1.62017e-58 7.65898e-59 3.55683e-59 1.623e-59 7.27815e-60 3.20812e-60 1.39023e-60 5.92401e-61 2.48264e-61 1.02344e-61 4.15092e-62 1.65667e-62 6.50749e-63 2.51627e-63 9.57954e-64 3.59128e-64 1.32601e-64 4.82287e-65 1.72802e-65 6.09414e-66 2.09689e-66 6.46428e-67 0 
0 9.66767e-93 4.91841e-92 2.38588e-91 1.14481e-90 5.44106e-90 2.56147e-89 1.19431e-88 5.5148e-88 2.52171e-87 1.14176e-86 5.11835e-86 2.27157e-85 9.9798e-85 4.33991e-84 1.86794e-83 7.95657e-83 3.35375e-82 1.39874e-81 5.77163e-81 2.356e-80 9.51314e-80 3.79926e-79 1.50056e-78 5.86064e-78 2.26321e-77 8.6406e-77 3.26104e-76 1.2165e-75 4.48497e-75 1.63399e-74 5.88206e-74 2.09193e-73 7.34933e-73 2.55022e-72 8.73938e-72 2.95733e-71 9.88049e-71 3.2588e-70 1.06091e-69 3.40861e-69 1.08068e-68 3.38041e-68 1.04312e-67 3.17488e-67 9.52975e-67 2.82052e-66 8.23003e-66 2.36718e-65 6.71035e-65 1.87445e-64 5.15875e-64 1.39857e-63 3.73435e-63 9.81891e-63 2.54186e-62 6.47745e-62 1.62457e-61 4.00939e-61 9.7351e-61 2.32512e-60 5.46147e-60 1.26139e-59 2.86409e-59 6.39194e-59 1.40186e-58 3.02079e-58 6.39432e-58 1.32936e-57 2.71385e-57 5.43922e-57 1.07008e-56 2.06607e-56 3.91421e-56 7.27509e-56 1.32634e-55 2.37149e-55 4.15791e-55 7.14746e-55 1.20447e-54 1.98955e-54 3.22098e-54 5.11042e-54 7.94575e-54 1.21062e-53 1.80745e-53 2.64438e-53 3.79139e-53 5.32761e-53 7.33807e-53 9.90888e-53 1.31208e-52 1.70417e-52 2.17185e-52 2.71701e-52 3.33809e-52 4.02984e-52 4.78326e-52 5.58598e-52 6.42293e-52 7.27727e-52 8.13148e-52 8.96838e-52 9.77211e-52 1.05288e-51 1.12272e-51 1.18587e-51 1.24174e-51 1.28999e-51 1.33051e-51 1.36337e-51 1.38883e-51 1.40726e-51 1.41915e-51 1.4251e-51 1.42573e-51 1.42173e-51 1.41377e-51 1.40251e-51 1.38857e-51 1.37252e-51 1.35487e-51 1.33606e-51 1.31651e-51 1.29661e-51 1.27671e-51 1.25721e-51 1.23846e-51 1.22084e-51 1.20473e-51 1.19047e-51 1.17839e-51 1.16879e-51 1.16194e-51 1.15805e-51 1.15726e-51 1.15964e-51 1.16513e-51 1.17352e-51 1.1844e-51 1.19716e-51 1.21101e-51 1.22497e-51 1.23797e-51 1.2489e-51 1.25675e-51 1.26073e-51 1.26031e-51 1.25535e-51 1.2461e-51 1.23317e-51 1.21748e-51 1.20018e-51 1.18247e-51 1.16551e-51 1.15028e-51 1.1375e-51 1.12754e-51 1.1205e-51 1.11612e-51 1.11394e-51 1.11335e-51 1.11367e-51 1.11422e-51 1.11442e-51 1.11384e-51 1.1122e-51 1.10941e-51 1.10556e-51 1.10091e-51 1.09584e-51 1.09087e-51 1.08656e-51 1.08348e-51 1.08219e-51 1.08316e-51 1.08674e-51 1.09316e-51 1.1025e-51 1.11472e-51 1.12964e-51 1.14704e-51 1.16657e-51 1.18784e-51 1.21036e-51 1.23352e-51 1.25655e-51 1.27849e-51 1.29814e-51 1.3141e-51 1.32475e-51 1.32838e-51 1.32329e-51 1.30791e-51 1.281e-51 1.24175e-51 1.18998e-51 1.12612e-51 1.05135e-51 9.67432e-52 8.76699e-52 7.81832e-52 6.85677e-52 5.91034e-52 5.00455e-52 4.16081e-52 3.39528e-52 2.71839e-52 2.13479e-52 1.64399e-52 1.24124e-52 9.1865e-53 6.66393e-53 4.73755e-53 3.3006e-53 2.25337e-53 1.50755e-53 9.88354e-54 6.35001e-54 3.99836e-54 2.46756e-54 1.49269e-54 8.85191e-55 5.14658e-55 2.93408e-55 1.64043e-55 8.99584e-56 4.83939e-56 2.55432e-56 1.32303e-56 6.72589e-57 3.35654e-57 1.64466e-57 7.91372e-58 3.74013e-58 1.7365e-58 7.92187e-59 3.55162e-59 1.56514e-59 6.78092e-60 2.88878e-60 1.21036e-60 4.98843e-61 2.02277e-61 8.07123e-62 3.16974e-62 1.22539e-62 4.66412e-63 1.74818e-63 6.4535e-64 2.34676e-64 8.40673e-65 2.96422e-65 1.01976e-65 3.14325e-66 0 
0 4.63281e-92 2.35691e-91 1.14331e-90 5.48588e-90 2.60733e-89 1.22745e-88 5.72312e-88 2.64272e-87 1.20843e-86 5.47153e-86 2.45287e-85 1.08863e-84 4.78289e-84 2.08e-83 8.95287e-83 3.81369e-82 1.60757e-81 6.70499e-81 2.76685e-80 1.12951e-79 4.56106e-79 1.82168e-78 7.19548e-78 2.81051e-77 1.08543e-76 4.1444e-76 1.56428e-75 5.836e-75 2.15184e-74 7.8406e-74 2.8228e-73 1.00404e-72 3.52784e-72 1.22433e-71 4.19625e-71 1.42019e-70 4.74559e-70 1.56545e-69 5.09717e-69 1.63796e-68 5.19396e-68 1.62499e-67 5.01533e-67 1.52678e-66 4.58372e-66 1.35692e-65 3.96023e-65 1.13932e-64 3.2304e-64 9.02579e-64 2.48461e-63 6.73753e-63 1.79945e-62 4.73257e-62 1.22546e-61 3.12365e-61 7.83632e-61 1.9345e-60 4.69839e-60 1.12247e-59 2.6373e-59 6.09289e-59 1.38383e-58 3.08924e-58 6.77718e-58 1.46079e-57 3.09305e-57 6.43222e-57 1.31349e-56 2.6333e-56 5.18204e-56 1.0008e-55 1.89655e-55 3.52594e-55 6.42987e-55 1.14995e-54 2.01667e-54 3.46746e-54 5.84454e-54 9.65605e-54 1.56356e-53 2.48119e-53 3.85842e-53 5.87954e-53 8.77925e-53 1.28457e-52 1.84192e-52 2.5884e-52 3.56531e-52 4.81445e-52 6.37497e-52 8.27972e-52 1.05513e-51 1.31987e-51 1.62141e-51 1.95715e-51 2.32271e-51 2.71203e-51 3.11778e-51 3.53177e-51 3.94548e-51 4.35059e-51 4.73942e-51 5.1053e-51 5.44279e-51 5.74776e-51 6.0174e-51 6.25014e-51 6.44546e-51 6.60379e-51 6.72635e-51 6.81501e-51 6.87216e-51 6.90062e-51 6.90348e-51 6.884e-51 6.84546e-51 6.79105e-51 6.72375e-51 6.64628e-51 6.56109e-51 6.47036e-51 6.37606e-51 6.28003e-51 6.18409e-51 6.09e-51 5.99958e-51 5.91462e-51 5.83691e-51 5.76814e-51 5.7099e-51 5.66364e-51 5.63061e-51 5.61186e-51 5.6081e-51 5.61963e-51 5.64616e-51 5.68666e-51 5.73919e-51 5.80085e-51 5.86774e-51 5.93517e-51 5.99792e-51 6.05071e-51 6.08865e-51 6.10787e-51 6.10586e-51 6.08193e-51 6.03725e-51 5.97482e-51 5.89912e-51 5.81561e-51 5.73016e-51 5.64835e-51 5.57491e-51 5.51328e-51 5.46537e-51 5.43148e-51 5.41049e-51 5.40012e-51 5.39739e-51 5.399e-51 5.40171e-51 5.40274e-51 5.39994e-51 5.39201e-51 5.37849e-51 5.35983e-51 5.33725e-51 5.3127e-51 5.28858e-51 5.26764e-51 5.25269e-51 5.24638e-51 5.25097e-51 5.2682e-51 5.29914e-51 5.3442e-51 5.40314e-51 5.47518e-51 5.55914e-51 5.65341e-51 5.75609e-51 5.86481e-51 5.97664e-51 6.08789e-51 6.19388e-51 6.28888e-51 6.36605e-51 6.41763e-51 6.43534e-51 6.41091e-51 6.33676e-51 6.2068e-51 6.01718e-51 5.76685e-51 5.458e-51 5.09617e-51 4.68997e-51 4.25062e-51 3.79112e-51 3.32524e-51 2.86656e-51 2.42748e-51 2.01839e-51 1.64715e-51 1.31884e-51 1.03575e-51 7.97644e-52 6.02237e-52 4.45716e-52 3.23315e-52 2.29841e-52 1.60118e-52 1.09306e-52 7.31204e-53 4.79326e-53 3.07919e-53 1.93857e-53 1.19619e-53 7.23482e-54 4.28959e-54 2.49353e-54 1.42128e-54 7.94464e-55 4.35575e-55 2.34268e-55 1.23623e-55 6.40162e-56 3.25361e-56 1.62331e-56 7.95204e-57 3.82538e-57 1.80747e-57 8.3898e-58 3.82645e-58 1.71508e-58 7.5562e-59 3.27289e-59 1.39396e-59 5.83907e-60 2.40597e-60 9.75369e-61 3.891e-61 1.52772e-61 5.90469e-62 2.24696e-62 8.42009e-63 3.10766e-63 1.12984e-63 4.04657e-64 1.42654e-64 4.90672e-65 1.51219e-65 0 
0 2.19897e-91 1.1187e-90 5.42665e-90 2.60385e-89 1.23756e-88 5.82607e-88 2.7165e-87 1.2544e-86 5.73606e-86 2.59723e-85 1.16436e-84 5.16781e-84 2.27055e-83 9.87465e-83 4.25048e-82 1.81068e-81 7.63291e-81 3.18377e-80 1.31388e-79 5.364e-79 2.16619e-78 8.65237e-78 3.4179e-77 1.33513e-76 5.15679e-76 1.96916e-75 7.43327e-75 2.77349e-74 1.02275e-73 3.72702e-73 1.34198e-72 4.77392e-72 1.67761e-71 5.82294e-71 1.99605e-70 6.7565e-70 2.25807e-69 7.45001e-69 2.42618e-68 7.79787e-68 2.47316e-67 7.73906e-67 2.38903e-66 7.27425e-66 2.18434e-65 6.46772e-65 1.88805e-64 5.43296e-64 1.54082e-63 4.3061e-63 1.18567e-62 3.216e-62 8.59146e-62 2.26016e-61 5.85403e-61 1.49258e-60 3.74549e-60 9.24883e-60 2.24694e-59 5.36959e-59 1.26198e-58 2.91639e-58 6.62572e-58 1.47956e-57 3.24683e-57 7.00051e-57 1.48272e-56 3.08434e-56 6.30022e-56 1.26345e-55 2.48705e-55 4.80461e-55 9.10746e-55 1.69366e-54 3.08938e-54 5.52662e-54 9.69452e-54 1.66728e-53 2.8109e-53 4.64502e-53 7.523e-53 1.19404e-52 1.85712e-52 2.83034e-52 4.22678e-52 6.18527e-52 8.8697e-52 1.24652e-51 1.71704e-51 2.31866e-51 3.07019e-51 3.98737e-51 5.08103e-51 6.35532e-51 7.80637e-51 9.42155e-51 1.11795e-50 1.3051e-50 1.50006e-50 1.69888e-50 1.89747e-50 2.09181e-50 2.27824e-50 2.45355e-50 2.61516e-50 2.76111e-50 2.89007e-50 3.00131e-50 3.09462e-50 3.1702e-50 3.22867e-50 3.27092e-50 3.29812e-50 3.31161e-50 3.31288e-50 3.30349e-50 3.285e-50 3.25893e-50 3.22672e-50 3.18967e-50 3.14893e-50 3.10555e-50 3.06046e-50 3.01456e-50 2.9687e-50 2.92373e-50 2.88051e-50 2.8399e-50 2.80276e-50 2.7699e-50 2.74207e-50 2.71996e-50 2.70419e-50 2.69524e-50 2.69346e-50 2.69899e-50 2.71169e-50 2.73108e-50 2.75622e-50 2.78573e-50 2.81775e-50 2.85003e-50 2.88007e-50 2.90533e-50 2.9235e-50 2.9327e-50 2.93175e-50 2.9203e-50 2.89892e-50 2.86905e-50 2.83284e-50 2.79289e-50 2.75203e-50 2.71292e-50 2.67782e-50 2.64839e-50 2.62554e-50 2.60939e-50 2.59941e-50 2.59452e-50 2.59327e-50 2.59409e-50 2.59542e-50 2.59592e-50 2.59459e-50 2.59078e-50 2.58429e-50 2.57532e-50 2.56447e-50 2.55267e-50 2.54108e-50 2.53101e-50 2.52381e-50 2.52074e-50 2.5229e-50 2.53112e-50 2.5459e-50 2.56744e-50 2.59562e-50 2.63008e-50 2.67024e-50 2.71535e-50 2.76447e-50 2.81649e-50 2.87001e-50 2.92326e-50 2.97401e-50 3.01952e-50 3.05652e-50 3.08129e-50 3.08986e-50 3.07825e-50 3.04283e-50 2.98066e-50 2.88986e-50 2.76993e-50 2.62189e-50 2.44837e-50 2.25351e-50 2.04266e-50 1.82207e-50 1.59835e-50 1.37803e-50 1.16707e-50 9.70475e-51 7.92037e-51 6.34206e-51 4.98092e-51 3.83596e-51 2.89624e-51 2.14348e-51 1.55479e-51 1.10523e-51 7.69901e-52 5.25536e-52 3.51521e-52 2.30405e-52 1.47992e-52 9.31573e-53 5.74728e-53 3.47547e-53 2.06024e-53 1.19737e-53 6.82343e-54 3.8133e-54 2.09021e-54 1.12393e-54 5.92949e-55 3.06974e-55 1.55979e-55 7.78023e-56 3.81028e-56 1.83248e-56 8.65611e-57 4.01687e-57 1.83155e-57 8.20717e-58 3.61492e-58 1.56536e-58 6.66532e-59 2.79128e-59 1.14984e-59 4.66026e-60 1.85864e-60 7.29583e-61 2.81919e-61 1.07256e-61 4.01831e-62 1.48274e-62 5.38953e-63 1.92988e-63 6.802e-64 2.33915e-64 7.20786e-65 0 
0 1.0338e-90 5.25932e-90 2.55122e-89 1.22414e-88 5.81816e-88 2.73905e-87 1.27715e-86 5.89757e-86 2.69688e-85 1.22115e-84 5.47468e-84 2.42993e-83 1.06767e-82 4.64349e-82 1.99886e-81 8.51546e-81 3.58989e-80 1.49748e-79 6.18021e-79 2.52329e-78 1.01908e-77 4.07083e-77 1.60822e-76 6.28273e-76 2.42687e-75 9.26817e-75 3.49897e-74 1.30568e-73 4.81541e-73 1.75501e-72 6.32007e-72 2.24859e-71 7.90295e-71 2.7435e-70 9.40594e-70 3.18437e-69 1.06442e-68 3.51244e-68 1.14407e-67 3.6778e-67 1.16667e-66 3.65151e-66 1.12745e-65 3.43364e-65 1.0313e-64 3.05431e-64 8.91817e-64 2.56687e-63 7.28155e-63 2.03548e-62 5.60606e-62 1.52098e-61 4.06436e-61 1.06951e-60 2.7709e-60 7.06688e-60 1.77388e-59 4.38157e-59 1.06479e-58 2.54533e-58 5.98396e-58 1.38329e-57 3.14366e-57 7.02216e-57 1.54147e-56 3.32461e-56 7.04377e-56 1.4657e-55 2.99483e-55 6.0077e-55 1.18296e-54 2.28598e-54 4.3345e-54 8.06294e-54 1.47116e-53 2.63249e-53 4.619e-53 7.94581e-53 1.33992e-52 2.21473e-52 3.5877e-52 5.69543e-52 8.85982e-52 1.35049e-51 2.01708e-51 2.95204e-51 4.23363e-51 5.95019e-51 8.1966e-51 1.10687e-50 1.46562e-50 1.90338e-50 2.42529e-50 3.03326e-50 3.72538e-50 4.49554e-50 5.33347e-50 6.22515e-50 7.1536e-50 8.09996e-50 9.04466e-50 9.96865e-50 1.08544e-49 1.16869e-49 1.24538e-49 1.31459e-49 1.37571e-49 1.4284e-49 1.47256e-49 1.50832e-49 1.53595e-49 1.5559e-49 1.56873e-49 1.57506e-49 1.57561e-49 1.57112e-49 1.56233e-49 1.54995e-49 1.53468e-49 1.51711e-49 1.4978e-49 1.47724e-49 1.45589e-49 1.43414e-49 1.41242e-49 1.39111e-49 1.37064e-49 1.35141e-49 1.33382e-49 1.31825e-49 1.30507e-49 1.29461e-49 1.28714e-49 1.28291e-49 1.28207e-49 1.2847e-49 1.29073e-49 1.29993e-49 1.31185e-49 1.32585e-49 1.34104e-49 1.35635e-49 1.3706e-49 1.38259e-49 1.39121e-49 1.39558e-49 1.39513e-49 1.3897e-49 1.37957e-49 1.3654e-49 1.34823e-49 1.3293e-49 1.30993e-49 1.2914e-49 1.27478e-49 1.26085e-49 1.25005e-49 1.24242e-49 1.23773e-49 1.23544e-49 1.23488e-49 1.23528e-49 1.23593e-49 1.23618e-49 1.23555e-49 1.23373e-49 1.23064e-49 1.22637e-49 1.22121e-49 1.21559e-49 1.21007e-49 1.20527e-49 1.20183e-49 1.20035e-49 1.20136e-49 1.20524e-49 1.21224e-49 1.22244e-49 1.2358e-49 1.25214e-49 1.27118e-49 1.29256e-49 1.31585e-49 1.34052e-49 1.3659e-49 1.39117e-49 1.41525e-49 1.43687e-49 1.45445e-49 1.46624e-49 1.47036e-49 1.4649e-49 1.44813e-49 1.41866e-49 1.37559e-49 1.31865e-49 1.24832e-49 1.16586e-49 1.07321e-49 9.7293e-50 8.67974e-50 7.61497e-50 6.56607e-50 5.56146e-50 4.62505e-50 3.77495e-50 3.02289e-50 2.37421e-50 1.8285e-50 1.38057e-50 1.02173e-50 7.41096e-51 5.26783e-51 3.66928e-51 2.50442e-51 1.67498e-51 1.09773e-51 7.04982e-52 4.43698e-52 2.73689e-52 1.65473e-52 9.80719e-53 5.69853e-53 3.24668e-53 1.814e-53 9.9408e-54 5.34394e-54 2.81858e-54 1.45882e-54 7.41058e-55 3.6954e-55 1.80929e-55 8.69904e-56 4.10805e-56 1.90582e-56 8.68742e-57 3.89177e-57 1.71369e-57 7.41874e-58 3.15806e-58 1.32217e-58 5.44513e-59 2.20631e-59 8.79711e-60 3.4523e-60 1.33368e-60 5.07274e-61 1.90003e-61 7.00936e-62 2.54722e-62 9.11901e-63 3.21337e-63 1.10483e-63 3.40384e-64 0 
0 4.81353e-90 2.44882e-89 1.18789e-88 5.69985e-88 2.70908e-87 1.27538e-86 5.94689e-86 2.7462e-85 1.25583e-84 5.68659e-84 2.54951e-83 1.13164e-82 4.97244e-82 2.16272e-81 9.31022e-81 3.96653e-80 1.67229e-79 6.97621e-79 2.87935e-78 1.17569e-77 4.74863e-77 1.89706e-76 7.49519e-76 2.92839e-75 1.13129e-74 4.32084e-74 1.63141e-73 6.08854e-73 2.24577e-72 8.18595e-72 2.94831e-71 1.04912e-70 3.68782e-70 1.28042e-69 4.39059e-69 1.48668e-68 4.97031e-68 1.64044e-67 5.34427e-67 1.71834e-66 5.45201e-66 1.70676e-65 5.27097e-65 1.60563e-64 4.82364e-64 1.42892e-63 4.17327e-63 1.20147e-62 3.40914e-62 9.53238e-62 2.62609e-61 7.12683e-61 1.90496e-60 5.01419e-60 1.29947e-59 3.31513e-59 8.32393e-59 2.05668e-58 4.99961e-58 1.19551e-57 2.81149e-57 6.50131e-57 1.47796e-56 3.30248e-56 7.25178e-56 1.56456e-55 3.31589e-55 6.90209e-55 1.41075e-54 2.83091e-54 5.57602e-54 1.07786e-53 2.0444e-53 3.80409e-53 6.94296e-53 1.24273e-52 2.1811e-52 3.75302e-52 6.3304e-52 1.04659e-51 1.69576e-51 2.69255e-51 4.18931e-51 6.38679e-51 9.54059e-51 1.39646e-50 2.0029e-50 2.8152e-50 3.87822e-50 5.23725e-50 6.93462e-50 9.00559e-50 1.14742e-49 1.43491e-49 1.76211e-49 2.12608e-49 2.52193e-49 2.94298e-49 3.38119e-49 3.8276e-49 4.27298e-49 4.70832e-49 5.1254e-49 5.51711e-49 5.87772e-49 6.20296e-49 6.48997e-49 6.73723e-49 6.94433e-49 7.11189e-49 7.24129e-49 7.33463e-49 7.39451e-49 7.42396e-49 7.4263e-49 7.40501e-49 7.36356e-49 7.30535e-49 7.23353e-49 7.151e-49 7.06032e-49 6.96379e-49 6.86351e-49 6.76143e-49 6.65945e-49 6.55946e-49 6.46337e-49 6.3731e-49 6.29054e-49 6.21749e-49 6.15564e-49 6.10654e-49 6.07151e-49 6.05167e-49 6.04777e-49 6.06015e-49 6.0885e-49 6.13174e-49 6.18782e-49 6.25363e-49 6.32503e-49 6.39701e-49 6.46401e-49 6.52038e-49 6.56092e-49 6.58146e-49 6.57937e-49 6.55387e-49 6.50624e-49 6.43969e-49 6.35902e-49 6.27007e-49 6.17912e-49 6.09212e-49 6.01413e-49 5.94882e-49 5.89819e-49 5.86253e-49 5.84063e-49 5.83003e-49 5.82752e-49 5.82954e-49 5.83266e-49 5.83387e-49 5.8309e-49 5.82235e-49 5.80776e-49 5.78761e-49 5.76324e-49 5.73671e-49 5.71064e-49 5.68796e-49 5.67168e-49 5.66465e-49 5.66929e-49 5.68746e-49 5.72029e-49 5.76821e-49 5.83096e-49 5.90771e-49 5.99715e-49 6.09763e-49 6.20707e-49 6.323e-49 6.4423e-49 6.56108e-49 6.67439e-49 6.7761e-49 6.85894e-49 6.91461e-49 6.93421e-49 6.90882e-49 6.83024e-49 6.69184e-49 6.48934e-49 6.22147e-49 5.89044e-49 5.50208e-49 5.06556e-49 4.59287e-49 4.09797e-49 3.59573e-49 3.10083e-49 2.62669e-49 2.18463e-49 1.78323e-49 1.42806e-49 1.12166e-49 8.63868e-50 6.52247e-50 4.82707e-50 3.50111e-50 2.4885e-50 1.73322e-50 1.18287e-50 7.91023e-51 5.1834e-51 3.32838e-51 2.09445e-51 1.29169e-51 7.80806e-52 4.62668e-52 2.68776e-52 1.53097e-52 8.5518e-53 4.68524e-53 2.51802e-53 1.32774e-53 6.87012e-54 3.48895e-54 1.73933e-54 8.51341e-55 4.09208e-55 1.93189e-55 8.9599e-56 4.08308e-56 1.8286e-56 8.04972e-57 3.48381e-57 1.48259e-57 6.20535e-58 2.55486e-58 1.03492e-58 4.12538e-59 1.61852e-59 6.25096e-60 2.37699e-60 8.90095e-61 3.28283e-61 1.1927e-61 4.26886e-62 1.50393e-62 5.16972e-63 1.59245e-63 0 
0 2.21955e-89 1.12917e-88 5.47748e-88 2.62829e-87 1.24921e-86 5.88118e-86 2.74235e-85 1.26641e-84 5.79147e-84 2.62255e-83 1.17584e-82 5.21936e-82 2.2935e-81 9.97589e-81 4.29474e-80 1.82985e-79 7.71516e-79 3.21873e-78 1.3286e-77 5.42533e-77 2.1915e-76 8.75577e-76 3.45971e-75 1.35186e-74 5.22305e-74 1.99512e-73 7.53388e-73 2.81205e-72 1.03737e-71 3.7818e-71 1.36228e-70 4.84824e-70 1.70451e-69 5.9191e-69 2.03001e-68 6.87499e-68 2.29889e-67 7.5889e-67 2.47283e-66 7.95249e-66 2.52374e-65 7.90234e-65 2.44103e-64 7.43757e-64 2.23493e-63 6.62222e-63 1.93457e-62 5.571e-62 1.58118e-61 4.42239e-61 1.21868e-60 3.30825e-60 8.84535e-60 2.32895e-59 6.03751e-59 1.54074e-58 3.86984e-58 9.56468e-58 2.32584e-57 5.5634e-57 1.30878e-56 3.02745e-56 6.88473e-56 1.5389e-55 3.38036e-55 7.29558e-55 1.54673e-54 3.22065e-54 6.58508e-54 1.32185e-53 2.6045e-53 5.03625e-53 9.55539e-53 1.77857e-52 3.24712e-52 5.81379e-52 1.02067e-51 1.75674e-51 2.96396e-51 4.90144e-51 7.94355e-51 1.26156e-50 1.96322e-50 2.99353e-50 4.47242e-50 6.54711e-50 9.39132e-50 1.32011e-49 1.81866e-49 2.45602e-49 3.25198e-49 4.22299e-49 5.38021e-49 6.72761e-49 8.26063e-49 9.96535e-49 1.18186e-48 1.3789e-48 1.58386e-48 1.79255e-48 2.00062e-48 2.20387e-48 2.39847e-48 2.5811e-48 2.74911e-48 2.90054e-48 3.03407e-48 3.14903e-48 3.24525e-48 3.32304e-48 3.38307e-48 3.42632e-48 3.45402e-48 3.46758e-48 3.46855e-48 3.45854e-48 3.43918e-48 3.41204e-48 3.37859e-48 3.34016e-48 3.29796e-48 3.25305e-48 3.2064e-48 3.15891e-48 3.11147e-48 3.06497e-48 3.02028e-48 2.97829e-48 2.9399e-48 2.90593e-48 2.87717e-48 2.85434e-48 2.83806e-48 2.82884e-48 2.82704e-48 2.83282e-48 2.84603e-48 2.86618e-48 2.8923e-48 2.92295e-48 2.95622e-48 2.98975e-48 3.02097e-48 3.04723e-48 3.06613e-48 3.07571e-48 3.07474e-48 3.06287e-48 3.04069e-48 3.00971e-48 2.97215e-48 2.93075e-48 2.88842e-48 2.84794e-48 2.81168e-48 2.78133e-48 2.75783e-48 2.7413e-48 2.73118e-48 2.72632e-48 2.72522e-48 2.72621e-48 2.7277e-48 2.72828e-48 2.7269e-48 2.7229e-48 2.71608e-48 2.70666e-48 2.69526e-48 2.68285e-48 2.67065e-48 2.66003e-48 2.6524e-48 2.64908e-48 2.6512e-48 2.65963e-48 2.67489e-48 2.69719e-48 2.7264e-48 2.76212e-48 2.80377e-48 2.85055e-48 2.90151e-48 2.95549e-48 3.01106e-48 3.06641e-48 3.11922e-48 3.16667e-48 3.20536e-48 3.23141e-48 3.24068e-48 3.22899e-48 3.19251e-48 3.12812e-48 3.0338e-48 2.90894e-48 2.75455e-48 2.57331e-48 2.3695e-48 2.14872e-48 1.91746e-48 1.68269e-48 1.45128e-48 1.22951e-48 1.02269e-48 8.34852e-49 6.68615e-49 5.25185e-49 4.0449e-49 3.05404e-49 2.26015e-49 1.63924e-49 1.16506e-49 8.11386e-50 5.53691e-50 3.70225e-50 2.42566e-50 1.55732e-50 9.79799e-51 6.04147e-51 3.65121e-51 2.16305e-51 1.25628e-51 7.15409e-52 3.99517e-52 2.18824e-52 1.17572e-52 6.19775e-53 3.20599e-53 1.62767e-53 8.11195e-54 3.96934e-54 1.90734e-54 9.00194e-55 4.17374e-55 1.90142e-55 8.51295e-56 3.74637e-56 1.6209e-56 6.89596e-57 2.88544e-57 1.18765e-57 4.80953e-58 1.91663e-58 7.51746e-59 2.90256e-59 1.10343e-59 4.13087e-60 1.52315e-60 5.53244e-61 1.97966e-61 6.97271e-62 2.39632e-62 7.38013e-63 0 
0 1.01345e-88 5.15585e-88 2.50107e-87 1.20012e-86 5.70422e-86 2.68555e-85 1.25228e-84 5.78321e-84 2.64483e-83 1.19771e-82 5.37021e-82 2.38387e-81 1.04758e-80 4.55685e-80 1.9619e-79 8.35959e-79 3.5249e-78 1.47069e-77 6.07106e-77 2.47934e-76 1.0016e-75 4.00211e-75 1.58154e-74 6.18045e-74 2.38816e-73 9.1235e-73 3.44562e-72 1.28627e-71 4.74573e-71 1.73034e-70 6.234e-70 2.21899e-69 7.80265e-69 2.71003e-68 9.29601e-68 3.14885e-67 1.05313e-66 3.47721e-66 1.13328e-65 3.64536e-65 1.15712e-64 3.62401e-64 1.11972e-63 3.41251e-63 1.02569e-62 3.03997e-62 8.88309e-62 2.55877e-61 7.26444e-61 2.03237e-60 5.60222e-60 1.52125e-59 4.06865e-59 1.0716e-58 2.77886e-58 7.09379e-58 1.78232e-57 4.40665e-57 1.07193e-56 2.56492e-56 6.03603e-56 1.39673e-55 3.17743e-55 7.10483e-55 1.56121e-54 3.37064e-54 7.14863e-54 1.48904e-53 3.04563e-53 6.11576e-53 1.20544e-52 2.33171e-52 4.4255e-52 8.24002e-52 1.50486e-51 2.69521e-51 4.73312e-51 8.14886e-51 1.37525e-50 2.2748e-50 3.68756e-50 5.85771e-50 9.11757e-50 1.39051e-49 2.07778e-49 3.04204e-49 4.36404e-49 6.13487e-49 8.45223e-49 1.14146e-48 1.51137e-48 1.96258e-48 2.5002e-48 3.12602e-48 3.83784e-48 4.62909e-48 5.48893e-48 6.40268e-48 7.35265e-48 8.31932e-48 9.28253e-48 1.02228e-47 1.11224e-47 1.19661e-47 1.27416e-47 1.34401e-47 1.40556e-47 1.45851e-47 1.5028e-47 1.53858e-47 1.56616e-47 1.58601e-47 1.5987e-47 1.60488e-47 1.60526e-47 1.6006e-47 1.59164e-47 1.5791e-47 1.56366e-47 1.54593e-47 1.52647e-47 1.50577e-47 1.48426e-47 1.46238e-47 1.44052e-47 1.41908e-47 1.39849e-47 1.37914e-47 1.36145e-47 1.3458e-47 1.33255e-47 1.32203e-47 1.31453e-47 1.31029e-47 1.30947e-47 1.31214e-47 1.31824e-47 1.32754e-47 1.3396e-47 1.35375e-47 1.3691e-47 1.38458e-47 1.39899e-47 1.41112e-47 1.41985e-47 1.42427e-47 1.42383e-47 1.41836e-47 1.40813e-47 1.39383e-47 1.3765e-47 1.35741e-47 1.33789e-47 1.31923e-47 1.30253e-47 1.28855e-47 1.27774e-47 1.27016e-47 1.26553e-47 1.26332e-47 1.26284e-47 1.26332e-47 1.26403e-47 1.2643e-47 1.26367e-47 1.26182e-47 1.25865e-47 1.25429e-47 1.249e-47 1.24325e-47 1.2376e-47 1.23267e-47 1.22913e-47 1.22757e-47 1.22853e-47 1.23241e-47 1.23944e-47 1.24972e-47 1.26319e-47 1.27967e-47 1.29888e-47 1.32046e-47 1.34397e-47 1.36888e-47 1.39453e-47 1.42008e-47 1.44448e-47 1.46642e-47 1.48432e-47 1.49641e-47 1.50076e-47 1.49544e-47 1.47867e-47 1.449e-47 1.40548e-47 1.34781e-47 1.27647e-47 1.19266e-47 1.09838e-47 9.96185e-48 8.89106e-48 7.80359e-48 6.73129e-48 5.70338e-48 4.74449e-48 3.87341e-48 3.10234e-48 2.43694e-48 1.87695e-48 1.41716e-48 1.04876e-48 7.60607e-49 5.40552e-49 3.76426e-49 2.56845e-49 1.71717e-49 1.12489e-49 7.22083e-50 4.54219e-50 2.80016e-50 1.69193e-50 1.0021e-50 5.81866e-51 3.31268e-51 1.84945e-51 1.0127e-51 5.43959e-52 2.86662e-52 1.48241e-52 7.52385e-53 3.74856e-53 1.83368e-53 8.80837e-54 4.15592e-54 1.92628e-54 8.77274e-55 3.92644e-55 1.7274e-55 7.47141e-56 3.17767e-56 1.32921e-56 5.46936e-57 2.21423e-57 8.82124e-58 3.45889e-58 1.33513e-58 5.0742e-59 1.89908e-59 7.00047e-60 2.54207e-60 9.0939e-61 3.20224e-61 1.10026e-61 3.3879e-62 0 