# vtk DataFile Version 3.0
Gray-Scott Simulation Output
ASCII
DATASET STRUCTURED_POINTS
DIMENSIONS 256 256 1
SPACING 1.0 1.0 1.0
ORIGIN 0 0 0
POINT_DATA 65536
SCALARS u double
LOOKUP_TABLE default
0 0 0 0 0 0 0 0 0 0 0 0 0 0 0 0 0 0 0 0 0 0 0 0 0 0 0 0 0 0 0 0 0 0 0 0 0 0 0 0 0 0 0 0 0 0 0 0 0 0 0 0 0 0 0 0 0 0 0 0 0 0 0 0 0 0 0 0 0 0 0 0 0 0 0 0 0 0 0 0 0 0 0 0 0 0 0 0 0 0 0 0 0 0 0 0 0 0 0 0 0 0 0 0 0 0 0 0 0 0 0 0 0 0 0 0 0 0 0 0 0 0 0 0 0 0 0 0 0 0 0 0 0 0 0 0 0 0 0 0 0 0 0 0 0 0 0 0 0 0 0 0 0 0 0 0 0 0 0 0 0 0 0 0 0 0 0 0 0 0 0 0 0 0 0 0 0 0 0 0 0 0 0 0 0 0 0 0 0 0 0 0 0 0 0 0 0 0 0 0 0 0 0 0 0 0 0 0 0 0 0 0 0 0 0 0 0 0 0 0 0 0 0 0 0 0 0 0 0 0 0 0 0 0 0 0 0 0 0 0 0 0 0 0 0 0 0 0 0 0 0 0 0 0 0 0 
0 2.28202e-116 1.71743e-115 1.25776e-114 9.11613e-114 6.54047e-113 4.64466e-112 3.26441e-111 2.27048e-110 1.56261e-109 1.06405e-108 7.16806e-108 4.7767e-107 3.14843e-106 2.05236e-105 1.32299e-104 8.43241e-104 5.31365e-103 3.30999e-102 2.03799e-101 1.24012e-100 7.45693e-100 4.4303e-99 2.60032e-98 1.50759e-97 8.6326e-97 4.8814e-96 2.72538e-95 1.5022e-94 8.17304e-94 4.3886e-93 2.32535e-92 1.21563e-91 6.26895e-91 3.18857e-90 1.59931e-89 7.9091e-89 3.8557e-88 1.8526e-87 8.77162e-87 4.09182e-86 1.88021e-85 8.50867e-85 3.79135e-84 1.66307e-83 7.17992e-83 3.05016e-82 1.27475e-81 5.23987e-81 2.11792e-80 8.4156e-80 3.28653e-79 1.26112e-78 4.75366e-78 1.75968e-77 6.39519e-77 2.2812e-76 7.98434e-76 2.74125e-75 9.22914e-75 3.04607e-74 9.85247e-74 3.12201e-73 9.68861e-73 2.94359e-72 8.75242e-72 2.546e-71 7.24284e-71 2.01427e-70 5.47414e-70 1.45324e-69 3.76714e-69 9.53155e-69 2.35297e-68 5.66494e-68 1.3296e-67 3.04096e-67 6.77467e-67 1.46952e-66 3.10239e-66 6.37204e-66 1.27278e-65 2.47148e-65 4.66382e-65 8.54989e-65 1.52225e-64 2.63153e-64 4.41606e-64 7.19282e-64 1.13701e-63 1.74433e-63 2.59739e-63 3.7547e-63 5.27097e-63 7.18943e-63 9.53389e-63 1.23021e-62 1.5462e-62 1.89523e-62 2.26874e-62 2.65657e-62 3.04804e-62 3.43297e-62 3.80243e-62 4.14924e-62 4.46802e-62 4.75497e-62 5.00756e-62 5.2242e-62 5.40401e-62 5.5467e-62 5.65266e-62 5.72302e-62 5.75978e-62 5.76586e-62 5.7451e-62 5.70198e-62 5.64136e-62 5.56794e-62 5.48577e-62 5.3979e-62 5.30615e-62 5.21136e-62 5.11374e-62 5.01349e-62 4.91139e-62 4.80905e-62 4.70894e-62 4.61399e-62 4.52709e-62 4.45052e-62 4.38569e-62 4.33327e-62 4.29349e-62 4.2668e-62 4.25427e-62 4.25777e-62 4.27969e-62 4.32219e-62 4.38632e-62 4.47101e-62 4.57244e-62 4.68385e-62 4.79595e-62 4.89788e-62 4.97852e-62 5.02807e-62 5.03946e-62 5.00958e-62 4.93987e-62 4.83631e-62 4.70877e-62 4.5696e-62 4.43194e-62 4.30786e-62 4.20667e-62 4.13386e-62 4.0907e-62 4.0746e-62 4.08009e-62 4.10016e-62 4.12752e-62 4.15569e-62 4.17958e-62 4.19569e-62 4.20193e-62 4.1974e-62 4.18207e-62 4.15675e-62 4.12301e-62 4.08337e-62 4.04127e-62 4.00101e-62 3.96744e-62 3.94538e-62 3.93902e-62 3.95121e-62 3.98303e-62 4.03366e-62 4.10074e-62 4.18102e-62 4.27126e-62 4.36905e-62 4.47324e-62 4.58397e-62 4.70202e-62 4.82787e-62 4.96053e-62 5.09652e-62 5.22921e-62 5.34874e-62 5.44258e-62 5.49651e-62 5.49623e-62 5.42906e-62 5.28574e-62 5.06192e-62 4.75925e-62 4.38566e-62 3.95494e-62 3.48543e-62 2.99817e-62 2.51462e-62 2.05443e-62 1.63367e-62 1.26354e-62 9.49974e-63 6.93959e-63 4.92375e-63 3.3922e-63 2.2689e-63 1.47317e-63 9.28512e-64 5.68119e-64 3.37484e-64 1.94671e-64 1.09061e-64 5.93565e-65 3.13918e-65 1.6138e-65 8.067e-66 3.92243e-66 1.85584e-66 8.54733e-67 3.83349e-67 1.67495e-67 7.1323e-68 2.96105e-68 1.19902e-68 4.73745e-69 1.82714e-69 6.88138e-70 2.53178e-70 9.10306e-71 3.19981e-71 1.10001e-71 3.69964e-72 1.21778e-72 3.92444e-73 1.2386e-73 3.8298e-74 1.16052e-74 3.44747e-75 1.00428e-75 2.86975e-76 8.04642e-77 2.21439e-77 5.983e-78 1.58752e-78 4.13784e-79 1.05972e-79 2.66739e-80 6.59936e-81 1.60122e-81 3.63378e-82 0 
0 1.71593e-115 1.29113e-114 9.45356e-114 6.85043e-113 4.9139e-112 3.48885e-111 2.45157e-110 1.70478e-109 1.17305e-108 7.98617e-108 5.37891e-107 3.58374e-106 2.36167e-105 1.5392e-104 9.92008e-104 6.32166e-103 3.98283e-102 2.48054e-101 1.52702e-100 9.29029e-100 5.58533e-99 3.31777e-98 1.947e-97 1.12862e-96 6.46156e-96 3.65317e-95 2.03931e-94 1.12387e-93 6.11372e-93 3.28233e-92 1.73892e-91 9.0893e-91 4.68665e-90 2.38344e-89 1.19531e-88 5.91043e-88 2.88097e-87 1.38409e-86 6.55254e-86 3.0563e-85 1.40422e-84 6.35395e-84 2.83094e-83 1.24166e-82 5.36006e-82 2.27684e-81 9.51469e-81 3.9107e-80 1.58055e-79 6.27987e-79 2.4523e-78 9.40942e-78 3.54656e-77 1.31277e-76 4.77072e-76 1.70166e-75 5.95566e-75 2.04467e-74 6.88369e-74 2.27189e-73 7.34822e-73 2.32843e-72 7.22577e-72 2.19531e-71 6.52747e-71 1.89878e-70 5.40167e-70 1.50224e-69 4.08268e-69 1.08387e-68 2.8097e-68 7.10923e-68 1.75505e-67 4.22554e-67 9.91797e-67 2.26846e-66 5.05391e-66 1.09631e-65 2.3146e-65 4.75422e-65 9.49675e-65 1.84417e-64 3.48022e-64 6.3804e-64 1.13604e-63 1.96398e-63 3.29596e-63 5.36863e-63 8.4868e-63 1.30204e-62 1.93884e-62 2.80277e-62 3.93467e-62 5.36678e-62 7.11682e-62 9.18307e-62 1.15415e-61 1.41463e-61 1.69334e-61 1.98269e-61 2.2747e-61 2.56176e-61 2.83721e-61 3.0957e-61 3.33322e-61 3.54695e-61 3.73503e-61 3.8963e-61 4.0301e-61 4.13626e-61 4.21507e-61 4.26738e-61 4.2947e-61 4.2992e-61 4.28372e-61 4.25164e-61 4.20654e-61 4.15192e-61 4.09081e-61 4.02545e-61 3.95721e-61 3.8867e-61 3.81408e-61 3.73951e-61 3.66355e-61 3.58742e-61 3.51294e-61 3.44231e-61 3.37767e-61 3.32071e-61 3.27251e-61 3.23353e-61 3.20397e-61 3.18415e-61 3.17487e-61 3.17752e-61 3.19386e-61 3.22552e-61 3.27327e-61 3.3363e-61 3.41178e-61 3.49467e-61 3.57807e-61 3.65388e-61 3.71385e-61 3.75066e-61 3.75909e-61 3.73681e-61 3.68488e-61 3.60778e-61 3.51283e-61 3.40924e-61 3.3068e-61 3.21447e-61 3.13919e-61 3.08505e-61 3.05298e-61 3.04106e-61 3.04521e-61 3.06021e-61 3.08064e-61 3.10166e-61 3.11948e-61 3.13151e-61 3.13618e-61 3.13282e-61 3.12141e-61 3.10254e-61 3.0774e-61 3.04785e-61 3.01645e-61 2.9864e-61 2.96131e-61 2.9448e-61 2.93996e-61 2.94893e-61 2.97252e-61 3.01012e-61 3.05998e-61 3.11969e-61 3.18682e-61 3.25957e-61 3.33711e-61 3.4195e-61 3.50735e-61 3.601e-61 3.69972e-61 3.8009e-61 3.89961e-61 3.98853e-61 4.05829e-61 4.09834e-61 4.09802e-61 4.04787e-61 3.941e-61 3.77415e-61 3.54854e-61 3.27007e-61 2.94901e-61 2.59902e-61 2.23577e-61 1.87525e-61 1.53213e-61 1.21839e-61 9.42374e-62 7.08534e-62 5.17599e-62 3.67252e-62 2.53021e-62 1.69236e-62 1.09884e-62 6.92578e-63 4.23759e-63 2.51727e-63 1.45202e-63 8.13459e-64 4.42718e-64 2.34136e-64 1.20363e-64 6.01655e-65 2.92539e-65 1.38408e-65 6.37446e-66 2.85891e-66 1.24912e-66 5.31893e-67 2.2082e-67 8.94162e-68 3.53291e-68 1.36257e-68 5.13173e-69 1.88807e-69 6.78866e-70 2.38631e-70 8.20364e-71 2.75918e-71 9.08244e-72 2.92701e-72 9.23833e-73 2.85664e-73 8.65668e-74 2.5717e-74 7.49197e-75 2.14098e-75 6.0034e-76 1.65225e-76 4.4645e-77 1.1847e-77 3.08812e-78 7.90951e-79 1.99104e-79 4.92647e-80 1.19544e-80 2.71314e-81 0 
0 1.25549e-114 9.44482e-114 6.91395e-113 5.00905e-112 3.59229e-111 2.54997e-110 1.79145e-109 1.24549e-108 8.56837e-108 5.83221e-107 3.92736e-106 2.61611e-105 1.72367e-104 1.12317e-103 7.23736e-103 4.61119e-102 2.90464e-101 1.8087e-100 1.11323e-99 6.77158e-99 4.07035e-98 2.41743e-97 1.4184e-96 8.22066e-96 4.70567e-95 2.66e-94 1.48466e-93 8.18069e-93 4.44949e-92 2.38848e-91 1.26518e-90 6.61212e-90 3.40887e-89 1.73337e-88 8.6918e-88 4.29724e-87 2.09437e-86 1.00606e-85 4.7623e-85 2.22102e-84 1.02034e-83 4.6164e-83 2.05657e-82 9.01931e-82 3.89312e-81 1.65356e-80 6.90946e-80 2.83967e-79 1.14759e-78 4.5593e-78 1.78029e-77 6.8305e-77 2.57437e-76 9.52856e-76 3.4626e-75 1.23502e-74 4.32227e-74 1.48385e-73 4.99547e-73 1.64866e-72 5.33235e-72 1.68964e-71 5.24339e-71 1.59302e-70 4.73666e-70 1.37786e-69 3.9198e-69 1.09014e-68 2.96277e-68 7.86575e-68 2.03909e-67 5.15959e-67 1.27379e-66 3.06698e-66 7.19898e-66 1.64665e-65 3.66876e-65 7.95885e-65 1.68041e-64 3.45178e-64 6.89548e-64 1.33911e-63 2.52724e-63 4.63353e-63 8.25056e-63 1.42642e-62 2.39395e-62 3.89957e-62 6.16475e-62 9.45823e-62 1.40845e-61 2.03609e-61 2.8584e-61 3.8988e-61 5.17013e-61 6.67107e-61 8.38415e-61 1.0276e-60 1.22999e-60 1.44007e-60 1.65204e-60 1.86035e-60 2.06019e-60 2.24767e-60 2.41988e-60 2.57479e-60 2.71106e-60 2.82786e-60 2.92474e-60 3.00159e-60 3.05862e-60 3.09646e-60 3.11621e-60 3.11944e-60 3.10823e-60 3.08499e-60 3.05235e-60 3.01282e-60 2.96858e-60 2.92128e-60 2.8719e-60 2.82087e-60 2.76831e-60 2.71434e-60 2.65936e-60 2.60425e-60 2.55034e-60 2.49921e-60 2.45243e-60 2.41121e-60 2.37633e-60 2.34814e-60 2.32676e-60 2.31244e-60 2.30576e-60 2.3077e-60 2.31957e-60 2.34251e-60 2.3771e-60 2.42275e-60 2.4774e-60 2.53741e-60 2.59777e-60 2.65264e-60 2.69603e-60 2.72265e-60 2.72872e-60 2.71254e-60 2.6749e-60 2.61904e-60 2.55027e-60 2.47525e-60 2.40107e-60 2.33422e-60 2.27973e-60 2.24055e-60 2.21738e-60 2.20879e-60 2.21185e-60 2.22276e-60 2.2376e-60 2.25286e-60 2.26581e-60 2.27454e-60 2.27794e-60 2.27551e-60 2.26725e-60 2.25358e-60 2.23535e-60 2.21391e-60 2.19111e-60 2.16929e-60 2.15105e-60 2.13901e-60 2.13543e-60 2.14185e-60 2.15886e-60 2.18604e-60 2.2221e-60 2.2653e-60 2.31389e-60 2.36656e-60 2.4227e-60 2.48236e-60 2.54597e-60 2.61378e-60 2.68524e-60 2.75849e-60 2.82995e-60 2.8943e-60 2.94478e-60 2.97371e-60 2.97339e-60 2.93696e-60 2.8594e-60 2.73837e-60 2.57473e-60 2.37275e-60 2.13986e-60 1.88598e-60 1.62245e-60 1.36089e-60 1.11193e-60 8.84268e-61 6.8397e-61 5.14265e-61 3.75691e-61 2.66569e-61 1.83657e-61 1.22842e-61 7.97609e-62 5.02717e-62 3.07588e-62 1.82716e-62 1.05393e-62 5.90427e-63 3.21328e-63 1.69934e-63 8.73563e-64 4.36654e-64 2.12306e-64 1.00445e-64 4.62595e-65 2.07467e-65 9.06448e-66 3.85972e-66 1.60237e-66 6.48836e-67 2.56358e-67 9.88712e-68 3.7237e-68 1.37002e-68 4.92603e-69 1.73158e-69 5.9529e-70 2.00221e-70 6.59085e-71 2.1241e-71 6.70436e-72 2.07317e-72 6.28273e-73 1.86654e-73 5.43794e-74 1.55408e-74 4.35797e-75 1.19947e-75 3.24128e-76 8.60165e-77 2.24235e-77 5.74372e-78 1.44598e-78 3.57812e-79 8.68335e-80 1.97092e-80 0 
0 9.09111e-114 6.83763e-113 5.00432e-112 3.62478e-111 2.59899e-110 1.8445e-109 1.29556e-108 9.00543e-108 6.19402e-107 4.21522e-106 2.83793e-105 1.89004e-104 1.24504e-103 8.11128e-103 5.22568e-102 3.32884e-101 2.09648e-100 1.30523e-99 8.032e-99 4.88487e-98 2.93574e-97 1.74327e-96 1.02267e-95 5.92611e-95 3.39166e-94 1.91691e-93 1.06974e-92 5.8935e-92 3.20499e-91 1.72017e-90 9.11049e-90 4.76065e-89 2.454e-88 1.24766e-87 6.25544e-87 3.0923e-86 1.50692e-85 7.23782e-85 3.42571e-84 1.59748e-83 7.33804e-83 3.31967e-82 1.47874e-81 6.48453e-81 2.79874e-80 1.18863e-79 4.96633e-79 2.04092e-78 8.24733e-78 3.27638e-77 1.27926e-76 4.90789e-76 1.84965e-75 6.84582e-75 2.48761e-74 8.87229e-74 3.10499e-73 1.06593e-72 3.58842e-72 1.18427e-71 3.83031e-71 1.21369e-70 3.76637e-70 1.14429e-69 3.40244e-69 9.89761e-69 2.81577e-68 7.83117e-68 2.12841e-67 5.65081e-67 1.46496e-66 3.70699e-66 9.15221e-66 2.20373e-65 5.173e-65 1.18331e-64 2.63659e-64 5.72005e-64 1.20779e-63 2.48112e-63 4.95676e-63 9.62672e-63 1.81692e-62 3.33142e-62 5.93236e-62 1.0257e-61 1.72151e-61 2.80435e-61 4.43354e-61 6.80241e-61 1.013e-60 1.46445e-60 2.05593e-60 2.80426e-60 3.71866e-60 4.79815e-60 6.03011e-60 7.39046e-60 8.84557e-60 1.03557e-59 1.1879e-59 1.33758e-59 1.48112e-59 1.61573e-59 1.73934e-59 1.85049e-59 1.94824e-59 2.03199e-59 2.10144e-59 2.15651e-59 2.19736e-59 2.22447e-59 2.2386e-59 2.2409e-59 2.23285e-59 2.21619e-59 2.19279e-59 2.16447e-59 2.13278e-59 2.09889e-59 2.0635e-59 2.02694e-59 1.98928e-59 1.95061e-59 1.91121e-59 1.87172e-59 1.83309e-59 1.79645e-59 1.76293e-59 1.7334e-59 1.70842e-59 1.68823e-59 1.67293e-59 1.66269e-59 1.65792e-59 1.65933e-59 1.66786e-59 1.68432e-59 1.70913e-59 1.74185e-59 1.78103e-59 1.82404e-59 1.8673e-59 1.90661e-59 1.93769e-59 1.95675e-59 1.96106e-59 1.94944e-59 1.92244e-59 1.88237e-59 1.83305e-59 1.77926e-59 1.72608e-59 1.67817e-59 1.63912e-59 1.61106e-59 1.59448e-59 1.58836e-59 1.59059e-59 1.59845e-59 1.60912e-59 1.62009e-59 1.6294e-59 1.63568e-59 1.63813e-59 1.6364e-59 1.63047e-59 1.62066e-59 1.60757e-59 1.59217e-59 1.57579e-59 1.56009e-59 1.54697e-59 1.53828e-59 1.53565e-59 1.5402e-59 1.55235e-59 1.57179e-59 1.59761e-59 1.62856e-59 1.66338e-59 1.70113e-59 1.74137e-59 1.78414e-59 1.82973e-59 1.87833e-59 1.92956e-59 1.98206e-59 2.03327e-59 2.07938e-59 2.11552e-59 2.13622e-59 2.13593e-59 2.10972e-59 2.05401e-59 1.96709e-59 1.84957e-59 1.70453e-59 1.53729e-59 1.35495e-59 1.16568e-59 9.77797e-60 7.98955e-60 6.35397e-60 4.91488e-60 3.69553e-60 2.69979e-60 1.91565e-60 1.31984e-60 8.82799e-61 5.73195e-61 3.61271e-61 2.21042e-61 1.31302e-61 7.57354e-62 4.24271e-62 2.30895e-62 1.22105e-62 6.27674e-63 3.13735e-63 1.52537e-63 7.21651e-64 3.32343e-64 1.49046e-64 6.51183e-65 2.77271e-65 1.15107e-65 4.66085e-66 1.84149e-66 7.1021e-67 2.67477e-67 9.84096e-68 3.53839e-68 1.24381e-68 4.27603e-69 1.43822e-69 4.7344e-70 1.52583e-70 4.81615e-71 1.48933e-71 4.51355e-72 1.34098e-72 3.90697e-73 1.11661e-73 3.13137e-74 8.61917e-75 2.32926e-75 6.18177e-76 1.61163e-76 4.12846e-77 1.03942e-77 2.5723e-78 6.24299e-79 1.41714e-79 0 
0 6.51624e-113 4.89999e-112 3.58543e-111 2.59649e-110 1.86131e-109 1.32069e-108 9.27454e-108 6.4454e-107 4.43231e-106 3.01572e-105 2.02995e-104 1.35167e-103 8.90222e-103 5.79859e-102 3.73502e-101 2.37883e-100 1.49789e-99 9.32388e-99 5.73663e-98 3.48826e-97 2.09604e-96 1.24443e-95 7.29907e-95 4.22894e-94 2.41994e-93 1.36749e-92 7.63011e-92 4.20301e-91 2.28533e-90 1.2264e-89 6.49438e-89 3.39314e-88 1.74885e-87 8.89028e-87 4.45677e-86 2.20287e-85 1.07336e-84 5.1548e-84 2.43953e-83 1.13748e-82 5.22447e-82 2.36327e-81 1.05261e-80 4.61546e-80 1.99187e-79 8.45884e-79 3.53398e-78 1.45219e-77 5.86788e-77 2.33096e-76 9.10067e-76 3.4913e-75 1.31571e-74 4.86943e-74 1.76937e-73 6.31043e-73 2.20837e-72 7.58106e-72 2.55211e-71 8.42254e-71 2.7241e-70 8.6317e-70 2.67865e-69 8.1383e-69 2.41989e-68 7.03956e-68 2.00274e-67 5.57016e-67 1.51395e-66 4.01964e-66 1.04213e-65 2.63718e-65 6.5113e-65 1.56793e-64 3.68076e-64 8.42015e-64 1.87627e-63 4.07082e-63 8.5962e-63 1.76601e-62 3.52837e-62 6.8531e-62 1.29353e-61 2.37192e-61 4.22404e-61 7.30376e-61 1.22592e-60 1.99715e-60 3.15756e-60 4.84488e-60 7.21513e-60 1.04309e-59 1.46441e-59 1.99746e-59 2.64877e-59 3.41763e-59 4.295e-59 5.26369e-59 6.29972e-59 7.37471e-59 8.45885e-59 9.52377e-59 1.05447e-58 1.15019e-58 1.23805e-58 1.31703e-58 1.38645e-58 1.44592e-58 1.49521e-58 1.53429e-58 1.56327e-58 1.58249e-58 1.5925e-58 1.59413e-58 1.5884e-58 1.57658e-58 1.55997e-58 1.53987e-58 1.51739e-58 1.49335e-58 1.46824e-58 1.44231e-58 1.41559e-58 1.38815e-58 1.36019e-58 1.33217e-58 1.30475e-58 1.27876e-58 1.25497e-58 1.23402e-58 1.2163e-58 1.20199e-58 1.19114e-58 1.18389e-58 1.18052e-58 1.18154e-58 1.18761e-58 1.1993e-58 1.21692e-58 1.24015e-58 1.26796e-58 1.29848e-58 1.32918e-58 1.35707e-58 1.37912e-58 1.39263e-58 1.39567e-58 1.3874e-58 1.36822e-58 1.33976e-58 1.30474e-58 1.26655e-58 1.2288e-58 1.19479e-58 1.16708e-58 1.14718e-58 1.13543e-58 1.13111e-58 1.13272e-58 1.13833e-58 1.14593e-58 1.15374e-58 1.16037e-58 1.16484e-58 1.16659e-58 1.16536e-58 1.16115e-58 1.15418e-58 1.14487e-58 1.13392e-58 1.12226e-58 1.11109e-58 1.10173e-58 1.09552e-58 1.09362e-58 1.09681e-58 1.1054e-58 1.11917e-58 1.13748e-58 1.15943e-58 1.18414e-58 1.21093e-58 1.2395e-58 1.26985e-58 1.30221e-58 1.33671e-58 1.37307e-58 1.41033e-58 1.44667e-58 1.47938e-58 1.50502e-58 1.51968e-58 1.51943e-58 1.50076e-58 1.46113e-58 1.39931e-58 1.31575e-58 1.21261e-58 1.09367e-58 9.63993e-59 8.29369e-59 6.95725e-59 5.685e-59 4.52136e-59 3.49746e-59 2.62983e-59 1.92129e-59 1.36328e-59 9.39273e-60 6.28254e-60 4.07919e-60 2.57098e-60 1.57301e-60 9.34377e-61 5.38936e-61 3.01904e-61 1.64295e-61 8.68816e-62 4.46594e-62 2.23216e-62 1.08523e-62 5.134e-63 2.36428e-63 1.06027e-63 4.63216e-64 1.97229e-64 8.18756e-65 3.31517e-65 1.30978e-65 5.05135e-66 1.90239e-66 6.99914e-67 2.51657e-67 8.84614e-68 3.04117e-68 1.02289e-68 3.36721e-69 1.08522e-69 3.42546e-70 1.0593e-70 3.2104e-71 9.53845e-72 2.77914e-72 7.94309e-73 2.22763e-73 6.13193e-74 1.6572e-74 4.39841e-75 1.14677e-75 2.93786e-76 7.39718e-77 1.83076e-77 4.44364e-78 1.00877e-78 0 
0 4.6229e-112 3.47555e-111 2.5426e-110 1.84091e-109 1.31939e-108 9.35982e-108 6.57158e-107 4.56604e-106 3.1393e-105 2.13554e-104 1.4372e-103 9.56794e-103 6.30033e-102 4.10303e-101 2.64238e-100 1.68261e-99 1.05931e-98 6.59267e-98 4.05551e-97 2.46559e-96 1.48128e-95 8.79296e-95 5.15656e-94 2.98713e-93 1.70906e-92 9.65627e-92 5.38703e-91 2.96698e-90 1.61302e-89 8.65482e-89 4.58252e-88 2.39392e-87 1.23368e-86 6.2706e-86 3.14311e-85 1.55337e-84 7.56802e-84 3.63411e-83 1.71967e-82 8.01747e-82 3.68207e-81 1.66541e-80 7.41714e-80 3.25196e-79 1.40332e-78 5.95898e-78 2.4894e-77 1.02288e-76 4.13289e-76 1.64166e-75 6.40913e-75 2.45863e-74 9.26506e-74 3.42886e-73 1.24588e-72 4.4433e-72 1.55493e-71 5.3378e-71 1.79692e-70 5.93022e-70 1.91802e-69 6.07755e-69 1.88606e-68 5.73035e-68 1.70394e-67 4.95698e-67 1.4103e-66 3.92259e-66 1.06619e-65 2.83096e-65 7.33992e-65 1.85753e-64 4.58661e-64 1.10454e-63 2.59311e-63 5.93248e-63 1.32204e-62 2.86857e-62 6.05793e-62 1.24465e-61 2.48692e-61 4.8307e-61 9.11872e-61 1.67221e-60 2.97818e-60 5.14993e-60 8.64465e-60 1.40839e-59 2.22683e-59 3.41695e-59 5.08882e-59 7.35714e-59 1.0329e-58 1.40889e-58 1.86828e-58 2.41055e-58 3.02929e-58 3.71236e-58 4.44278e-58 5.20053e-58 5.96454e-58 6.7148e-58 7.43387e-58 8.10777e-58 8.72612e-58 9.28175e-58 9.77001e-58 1.01881e-57 1.05345e-57 1.08091e-57 1.10127e-57 1.11476e-57 1.12178e-57 1.12291e-57 1.11889e-57 1.11057e-57 1.0989e-57 1.08478e-57 1.06899e-57 1.0521e-57 1.03446e-57 1.01624e-57 9.97473e-58 9.78194e-58 9.58553e-58 9.38863e-58 9.19603e-58 9.0134e-58 8.8463e-58 8.69915e-58 8.57471e-58 8.47419e-58 8.3981e-58 8.34724e-58 8.32366e-58 8.33095e-58 8.37366e-58 8.45596e-58 8.57981e-58 8.74314e-58 8.93857e-58 9.15308e-58 9.36877e-58 9.56472e-58 9.71955e-58 9.81437e-58 9.83565e-58 9.77738e-58 9.64238e-58 9.44227e-58 9.19604e-58 8.92756e-58 8.6622e-58 8.4232e-58 8.22855e-58 8.08881e-58 8.00637e-58 7.97621e-58 7.98773e-58 8.02734e-58 8.08095e-58 8.13601e-58 8.1827e-58 8.21423e-58 8.22659e-58 8.21798e-58 8.18839e-58 8.1393e-58 8.07378e-58 7.99662e-58 7.91449e-58 7.83571e-58 7.76965e-58 7.72572e-58 7.71204e-58 7.7342e-58 7.79434e-58 7.89096e-58 8.01951e-58 8.17373e-58 8.34733e-58 8.53561e-58 8.73633e-58 8.94967e-58 9.17713e-58 9.41957e-58 9.67508e-58 9.93689e-58 1.01922e-57 1.04221e-57 1.06021e-57 1.07049e-57 1.07028e-57 1.05712e-57 1.0292e-57 9.85673e-58 9.26833e-58 8.54206e-58 7.70455e-58 6.79132e-58 5.84317e-58 4.90183e-58 4.00562e-58 3.18586e-58 2.46447e-58 1.85316e-58 1.35389e-58 9.60692e-59 6.61901e-59 4.42727e-59 2.87455e-59 1.81171e-59 1.10844e-59 6.58403e-60 3.79746e-60 2.1272e-60 1.15757e-60 6.12115e-61 3.14629e-61 1.5725e-61 7.6448e-62 3.61644e-62 1.66535e-62 7.46799e-63 3.26251e-63 1.38906e-63 5.76617e-64 2.33466e-64 9.22366e-65 3.55712e-65 1.33961e-65 4.92851e-66 1.77203e-66 6.22889e-67 2.14139e-67 7.20246e-68 2.37095e-68 7.6414e-69 2.41201e-69 7.45908e-70 2.26065e-70 6.71683e-71 1.95709e-71 5.59377e-72 1.56883e-72 4.31867e-73 1.16721e-73 3.09809e-74 8.07796e-75 2.06959e-75 5.21135e-76 1.28988e-76 3.13104e-77 7.10844e-78 0 
0 3.24586e-111 2.43978e-110 1.78449e-109 1.29175e-108 9.25613e-108 6.56499e-107 4.60838e-106 3.20134e-105 2.20059e-104 1.49668e-103 1.00706e-102 6.70304e-102 4.41301e-101 2.87339e-100 1.85014e-99 1.17792e-98 7.41442e-98 4.61358e-97 2.83757e-96 1.72484e-95 1.03607e-94 6.14918e-94 3.60555e-93 2.08831e-92 1.19462e-91 6.74865e-91 3.76436e-90 2.07297e-89 1.12682e-88 6.04524e-88 3.20037e-87 1.67166e-86 8.61358e-86 4.37761e-85 2.19399e-84 1.08418e-83 5.2815e-83 2.53587e-82 1.19985e-81 5.59341e-81 2.56856e-80 1.16166e-79 5.17317e-79 2.26793e-78 9.78605e-78 4.1552e-77 1.73574e-76 7.1316e-76 2.88133e-75 1.14446e-74 4.46782e-74 1.71384e-73 6.45821e-73 2.39002e-72 8.68395e-72 3.09698e-71 1.08377e-70 3.72037e-70 1.25242e-69 4.1333e-69 1.33685e-68 4.2361e-68 1.31462e-67 3.99429e-67 1.18775e-66 3.45547e-66 9.83151e-66 2.73466e-65 7.43346e-65 1.97385e-64 5.11799e-64 1.29531e-63 3.19861e-63 7.70341e-63 1.80867e-62 4.13818e-62 9.22261e-62 2.00131e-61 4.22679e-61 8.68503e-61 1.73551e-60 3.37141e-60 6.36464e-60 1.16726e-59 2.07905e-59 3.5954e-59 6.03568e-59 9.83399e-59 1.55497e-58 2.38614e-58 3.5538e-58 5.13806e-58 7.21372e-58 9.83969e-58 1.30481e-57 1.6835e-57 2.11556e-57 2.59247e-57 3.10237e-57 3.63122e-57 4.16433e-57 4.68768e-57 5.18911e-57 5.65887e-57 6.08975e-57 6.47679e-57 6.81676e-57 7.10776e-57 7.34883e-57 7.5398e-57 7.68136e-57 7.77514e-57 7.82394e-57 7.83173e-57 7.80367e-57 7.74581e-57 7.66462e-57 7.56639e-57 7.45652e-57 7.33905e-57 7.21642e-57 7.0897e-57 6.95914e-57 6.82505e-57 6.68842e-57 6.55146e-57 6.41748e-57 6.29045e-57 6.17422e-57 6.07189e-57 5.98536e-57 5.9155e-57 5.86262e-57 5.82731e-57 5.81099e-57 5.81613e-57 5.84591e-57 5.90323e-57 5.98946e-57 6.10313e-57 6.23912e-57 6.38837e-57 6.53842e-57 6.67472e-57 6.78238e-57 6.84828e-57 6.86298e-57 6.82234e-57 6.72831e-57 6.58897e-57 6.41757e-57 6.2307e-57 6.04603e-57 5.87974e-57 5.74434e-57 5.64719e-57 5.58994e-57 5.56909e-57 5.57725e-57 5.60495e-57 5.64239e-57 5.68082e-57 5.71341e-57 5.73542e-57 5.74405e-57 5.73808e-57 5.71747e-57 5.68327e-57 5.63759e-57 5.58378e-57 5.52648e-57 5.47148e-57 5.42532e-57 5.39454e-57 5.38482e-57 5.40006e-57 5.44175e-57 5.50886e-57 5.59822e-57 5.70547e-57 5.82623e-57 5.95723e-57 6.0969e-57 6.24535e-57 6.40361e-57 6.57231e-57 6.75008e-57 6.93223e-57 7.10986e-57 7.26971e-57 7.3949e-57 7.46631e-57 7.46464e-57 7.37275e-57 7.17804e-57 6.87454e-57 6.46433e-57 5.958e-57 5.37407e-57 4.73729e-57 4.0761e-57 3.4196e-57 2.79451e-57 2.2227e-57 1.71946e-57 1.29298e-57 9.44656e-58 6.70314e-58 4.61837e-58 3.08908e-58 2.00567e-58 1.26407e-58 7.73362e-59 4.59353e-59 2.6493e-59 1.48398e-59 8.0751e-60 4.26984e-60 2.1946e-60 1.0968e-60 5.33183e-61 2.52214e-61 1.16136e-61 5.20768e-62 2.27494e-62 9.68542e-63 4.02035e-63 1.62772e-63 6.43047e-64 2.47983e-64 9.33874e-65 3.43567e-65 1.23525e-65 4.34197e-66 1.49267e-66 5.02047e-67 1.65266e-67 5.32639e-68 1.68128e-68 5.19937e-69 1.57582e-69 4.68213e-70 1.36427e-70 3.89949e-71 1.09369e-71 3.01082e-72 8.13774e-73 2.16008e-73 5.63249e-74 1.44314e-74 3.63415e-75 8.99563e-76 2.18375e-76 4.95815e-77 0 
0 2.25527e-110 1.69485e-109 1.23938e-108 8.9697e-108 6.42602e-107 4.55679e-106 3.19806e-105 2.22118e-104 1.52653e-103 1.03803e-102 6.98319e-102 4.64718e-101 3.05894e-100 1.99137e-99 1.28198e-98 8.16047e-98 5.1357e-97 3.19511e-96 1.9648e-95 1.19412e-94 7.17164e-94 4.25573e-93 2.49493e-92 1.44483e-91 8.26388e-91 4.66772e-90 2.60325e-89 1.43336e-88 7.79033e-88 4.17883e-87 2.212e-86 1.15525e-85 5.95192e-85 3.02453e-84 1.51567e-83 7.48896e-83 3.6478e-82 1.75128e-81 8.28538e-81 3.86207e-80 1.77335e-79 8.01947e-79 3.57098e-78 1.56541e-77 6.7542e-77 2.86767e-76 1.19783e-75 4.92123e-75 1.98819e-74 7.89667e-74 3.08264e-73 1.18245e-72 4.45566e-72 1.64889e-71 5.99101e-71 2.13657e-70 7.47676e-70 2.56663e-69 8.64033e-69 2.85155e-68 9.22304e-68 2.9226e-67 9.07021e-67 2.75595e-66 8.19552e-66 2.38439e-65 6.78443e-65 1.88722e-64 5.13024e-64 1.36235e-63 3.53271e-63 8.94162e-63 2.2082e-62 5.3186e-62 1.24885e-61 2.85761e-61 6.36924e-61 1.38226e-60 2.91963e-60 5.99973e-60 1.19903e-59 2.32947e-59 4.39806e-59 8.06669e-59 1.43691e-58 2.48514e-58 4.17218e-58 6.79828e-58 1.07502e-57 1.64975e-57 2.45717e-57 3.5527e-57 4.98804e-57 6.80389e-57 9.02238e-57 1.16407e-56 1.46278e-56 1.79245e-56 2.14487e-56 2.51031e-56 2.87858e-56 3.24002e-56 3.5862e-56 3.91039e-56 4.20764e-56 4.47453e-56 4.70888e-56 4.9094e-56 5.07546e-56 5.20697e-56 5.30441e-56 5.36895e-56 5.4025e-56 5.40781e-56 5.38845e-56 5.34858e-56 5.29266e-56 5.22501e-56 5.14936e-56 5.06848e-56 4.98404e-56 4.89679e-56 4.8069e-56 4.71456e-56 4.62047e-56 4.52616e-56 4.43389e-56 4.34641e-56 4.26639e-56 4.19594e-56 4.13638e-56 4.0883e-56 4.05193e-56 4.02766e-56 4.01647e-56 4.02006e-56 4.04062e-56 4.08015e-56 4.13957e-56 4.21789e-56 4.31157e-56 4.41437e-56 4.51772e-56 4.61157e-56 4.68569e-56 4.73103e-56 4.7411e-56 4.71303e-56 4.64819e-56 4.55214e-56 4.43401e-56 4.30525e-56 4.17802e-56 4.06348e-56 3.97024e-56 3.90338e-56 3.86402e-56 3.84975e-56 3.85548e-56 3.87467e-56 3.90055e-56 3.92711e-56 3.94962e-56 3.96483e-56 3.97081e-56 3.9667e-56 3.95249e-56 3.92889e-56 3.89737e-56 3.86022e-56 3.82064e-56 3.78262e-56 3.75068e-56 3.72934e-56 3.72251e-56 3.73287e-56 3.76149e-56 3.80763e-56 3.86913e-56 3.94297e-56 4.02614e-56 4.11637e-56 4.21258e-56 4.31484e-56 4.42386e-56 4.54006e-56 4.66251e-56 4.78797e-56 4.9103e-56 5.02038e-56 5.10656e-56 5.15565e-56 5.15436e-56 5.09084e-56 4.95641e-56 4.74692e-56 4.46379e-56 4.11431e-56 3.71124e-56 3.27165e-56 2.81516e-56 2.36186e-56 1.93021e-56 1.53531e-56 1.18775e-56 8.93172e-57 6.52566e-57 4.63055e-57 3.19039e-57 2.13393e-57 1.38549e-57 8.73179e-58 5.34199e-58 3.17285e-58 1.82985e-58 1.02493e-58 5.57685e-59 2.94868e-59 1.51547e-59 7.57339e-60 3.68141e-60 1.74132e-60 8.01774e-61 3.59502e-61 1.57037e-61 6.68536e-62 2.77489e-62 1.12342e-62 4.43793e-63 1.71135e-63 6.44449e-64 2.3708e-64 8.52364e-65 2.99601e-65 1.02993e-65 3.46403e-66 1.14029e-66 3.67502e-67 1.16002e-67 3.58737e-68 1.08726e-68 3.23055e-69 9.41328e-70 2.69065e-70 7.54668e-71 2.0776e-71 5.61561e-72 1.49067e-72 3.88717e-73 9.96014e-74 2.50833e-74 6.20927e-75 1.50745e-75 3.42284e-76 0 
0 1.55052e-109 1.16499e-108 8.51742e-108 6.16301e-107 4.41438e-106 3.12967e-105 2.19604e-104 1.52494e-103 1.04783e-102 7.12382e-102 4.79152e-101 3.18807e-100 2.09811e-99 1.36562e-98 8.7899e-98 5.59422e-97 3.52005e-96 2.18957e-95 1.34623e-94 8.18045e-94 4.91221e-93 2.9145e-92 1.70836e-91 9.89168e-91 5.65683e-90 3.1947e-89 1.78147e-88 9.80746e-88 5.32966e-87 2.85852e-86 1.51291e-85 7.90043e-85 4.06987e-84 2.0679e-83 1.03616e-82 5.11914e-82 2.49323e-81 1.19686e-80 5.66184e-80 2.63892e-79 1.21161e-78 5.47872e-78 2.43943e-77 1.06929e-76 4.61333e-76 1.95859e-75 8.18062e-75 3.36079e-74 1.35771e-73 5.39232e-73 2.10494e-72 8.07401e-72 3.04234e-71 1.12585e-70 4.09058e-70 1.45881e-69 5.10502e-69 1.75247e-68 5.89962e-68 1.94708e-67 6.29779e-67 1.99571e-66 6.19388e-66 1.88207e-65 5.5971e-65 1.6285e-64 4.63395e-64 1.28911e-63 3.50459e-63 9.30728e-63 2.41366e-62 6.10975e-62 1.50899e-61 3.63484e-61 8.53578e-61 1.95334e-60 4.3542e-60 9.45052e-60 1.99637e-59 4.1029e-59 8.2004e-59 1.59334e-58 3.00855e-58 5.51869e-58 9.83135e-58 1.70049e-57 2.85512e-57 4.65258e-57 7.35774e-57 1.1292e-56 1.68194e-56 2.43193e-56 3.41456e-56 4.65767e-56 6.17635e-56 7.96865e-56 1.00131e-55 1.22692e-55 1.46805e-55 1.71804e-55 1.9699e-55 2.217e-55 2.45359e-55 2.67508e-55 2.87807e-55 3.06025e-55 3.22017e-55 3.35695e-55 3.47017e-55 3.55981e-55 3.62621e-55 3.67017e-55 3.693e-55 3.69659e-55 3.68337e-55 3.65617e-55 3.61804e-55 3.57192e-55 3.52035e-55 3.46523e-55 3.40768e-55 3.34821e-55 3.28694e-55 3.224e-55 3.15987e-55 3.09557e-55 3.03267e-55 2.97304e-55 2.9185e-55 2.87048e-55 2.8299e-55 2.79715e-55 2.77239e-55 2.75588e-55 2.74828e-55 2.75077e-55 2.76482e-55 2.79179e-55 2.83233e-55 2.88575e-55 2.94964e-55 3.01973e-55 3.09019e-55 3.15417e-55 3.20468e-55 3.23556e-55 3.24238e-55 3.2232e-55 3.17894e-55 3.1134e-55 3.03281e-55 2.94498e-55 2.85821e-55 2.78011e-55 2.71655e-55 2.671e-55 2.64422e-55 2.63456e-55 2.63853e-55 2.65169e-55 2.66941e-55 2.68757e-55 2.70297e-55 2.71337e-55 2.71747e-55 2.71467e-55 2.70497e-55 2.68885e-55 2.66731e-55 2.64192e-55 2.61486e-55 2.58885e-55 2.56697e-55 2.55232e-55 2.54756e-55 2.55455e-55 2.57399e-55 2.6054e-55 2.64729e-55 2.69762e-55 2.75433e-55 2.81585e-55 2.88145e-55 2.95118e-55 3.02552e-55 3.10476e-55 3.18825e-55 3.27379e-55 3.35719e-55 3.43222e-55 3.49094e-55 3.52436e-55 3.52338e-55 3.47992e-55 3.38804e-55 3.2449e-55 3.05145e-55 2.81265e-55 2.53722e-55 2.2368e-55 1.9248e-55 1.61495e-55 1.31987e-55 1.04988e-55 8.12235e-56 6.10807e-56 4.46273e-56 3.16674e-56 2.18184e-56 1.45933e-56 9.47476e-57 5.97112e-57 3.65291e-57 2.16954e-57 1.25116e-57 7.00752e-58 3.81272e-58 2.01579e-58 1.03594e-58 5.17665e-59 2.51619e-59 1.19008e-59 5.47922e-60 2.45662e-60 1.07302e-60 4.56775e-61 1.89582e-61 7.67474e-62 3.03165e-62 1.169e-62 4.4019e-63 1.6193e-63 5.82155e-64 2.04616e-64 7.03384e-65 2.36566e-65 7.7871e-66 2.50965e-66 7.92161e-67 2.44975e-67 7.4247e-68 2.20609e-68 6.42824e-69 1.83745e-69 5.15374e-70 1.41886e-70 3.8352e-71 1.0181e-71 2.65497e-72 6.80318e-73 1.71338e-73 4.24165e-74 1.02982e-74 2.33848e-75 0 