# vtk DataFile Version 3.0
Gray-Scott Simulation Output
ASCII
DATASET STRUCTURED_POINTS
DIMENSIONS 256 256 1
SPACING 1.0 1.0 1.0
ORIGIN 0 0 0
POINT_DATA 65536
SCALARS u double
LOOKUP_TABLE default
0 0 0 0 0 0 0 0 0 0 0 0 0 0 0 0 0 0 0 0 0 0 0 0 0 0 0 0 0 0 0 0 0 0 0 0 0 0 0 0 0 0 0 0 0 0 0 0 0 0 0 0 0 0 0 0 0 0 0 0 0 0 0 0 0 0 0 0 0 0 0 0 0 0 0 0 0 0 0 0 0 0 0 0 0 0 0 0 0 0 0 0 0 0 0 0 0 0 0 0 0 0 0 0 0 0 0 0 0 0 0 0 0 0 0 0 0 0 0 0 0 0 0 0 0 0 0 0 0 0 0 0 0 0 0 0 0 0 0 0 0 0 0 0 0 0 0 0 0 0 0 0 0 0 0 0 0 0 0 0 0 0 0 0 0 0 0 0 0 0 0 0 0 0 0 0 0 0 0 0 0 0 0 0 0 0 0 0 0 0 0 0 0 0 0 0 0 0 0 0 0 0 0 0 0 0 0 0 0 0 0 0 0 0 0 0 0 0 0 0 0 0 0 0 0 0 0 0 0 0 0 0 0 0 0 0 0 0 0 0 0 0 0 0 0 0 0 0 0 0 0 0 0 0 0 0 
0 5.45576e-75 1.82837e-74 5.55082e-74 1.65682e-73 4.90165e-73 1.43849e-72 4.18784e-72 1.2094e-71 3.46441e-71 9.84331e-71 2.77385e-70 7.75235e-70 2.14865e-69 5.90553e-69 1.60948e-68 4.34935e-68 1.16532e-67 3.0955e-67 8.1517e-67 2.12802e-66 5.50662e-66 1.41238e-65 3.59042e-65 9.04572e-65 2.25848e-64 5.58772e-64 1.36985e-63 3.32738e-63 8.00743e-63 1.90905e-62 4.50862e-62 1.05474e-61 2.44392e-61 5.60846e-61 1.27462e-60 2.86861e-60 6.39262e-60 1.4105e-59 3.08123e-59 6.66343e-59 1.42646e-58 3.02259e-58 6.339e-58 1.31568e-57 2.70232e-57 5.49216e-57 1.10442e-56 2.19724e-56 4.32449e-56 8.41923e-56 1.62127e-55 3.08777e-55 5.81579e-55 1.0832e-54 1.99485e-54 3.63224e-54 6.53834e-54 1.16347e-53 2.04643e-53 3.55762e-53 6.11235e-53 1.03779e-52 1.7411e-52 2.88617e-52 4.7268e-52 7.64768e-52 1.2223e-51 1.92964e-51 3.00886e-51 4.63363e-51 7.0471e-51 1.05838e-50 1.56963e-50 2.29853e-50 3.32342e-50 4.74442e-50 6.68704e-50 9.30519e-50 1.27836e-49 1.73385e-49 2.32169e-49 3.0693e-49 4.00615e-49 5.1628e-49 6.56959e-49 8.255e-49 1.02438e-48 1.25549e-48 1.51997e-48 1.81799e-48 2.1486e-48 2.50967e-48 2.89784e-48 3.30857e-48 3.73631e-48 4.17465e-48 4.61664e-48 5.0551e-48 5.48295e-48 5.89353e-48 6.28091e-48 6.64013e-48 6.96734e-48 7.25988e-48 7.51634e-48 7.7364e-48 7.92075e-48 8.07091e-48 8.18903e-48 8.27766e-48 8.33962e-48 8.37781e-48 8.3951e-48 8.39419e-48 8.37766e-48 8.34782e-48 8.30681e-48 8.25656e-48 8.19884e-48 8.13529e-48 8.06742e-48 7.99669e-48 7.9245e-48 7.85218e-48 7.78107e-48 7.71243e-48 7.64751e-48 7.58745e-48 7.53334e-48 7.48613e-48 7.4466e-48 7.41536e-48 7.39277e-48 7.37892e-48 7.37358e-48 7.37624e-48 7.38604e-48 7.4018e-48 7.42208e-48 7.44521e-48 7.46938e-48 7.49274e-48 7.51346e-48 7.52991e-48 7.5407e-48 7.54481e-48 7.54165e-48 7.53105e-48 7.51334e-48 7.48921e-48 7.45975e-48 7.42627e-48 7.3902e-48 7.35303e-48 7.31609e-48 7.28057e-48 7.24735e-48 7.21702e-48 7.18986e-48 7.16586e-48 7.14476e-48 7.12617e-48 7.10961e-48 7.09464e-48 7.0809e-48 7.06821e-48 7.05661e-48 7.04639e-48 7.03805e-48 7.03235e-48 7.03021e-48 7.03267e-48 7.04083e-48 7.05579e-48 7.07854e-48 7.10994e-48 7.15064e-48 7.20098e-48 7.26103e-48 7.33045e-48 7.40847e-48 7.49387e-48 7.5849e-48 7.67926e-48 7.77404e-48 7.86574e-48 7.95026e-48 8.02297e-48 8.07877e-48 8.11225e-48 8.11791e-48 8.09035e-48 8.02459e-48 7.91636e-48 7.76239e-48 7.56072e-48 7.31087e-48 7.01404e-48 6.67314e-48 6.29275e-48 5.87896e-48 5.43911e-48 4.98144e-48 4.51472e-48 4.0478e-48 3.58919e-48 3.14668e-48 2.72702e-48 2.3357e-48 1.97681e-48 1.65296e-48 1.36538e-48 1.114e-48 8.97681e-49 7.14371e-49 5.61388e-49 4.35629e-49 3.33787e-49 2.52526e-49 1.88635e-49 1.39127e-49 1.01315e-49 7.28479e-50 5.17184e-50 3.62551e-50 2.50959e-50 1.71538e-50 1.15787e-50 7.71829e-51 5.0812e-51 3.30383e-51 2.12179e-51 1.34599e-51 8.43472e-52 5.22171e-52 3.19374e-52 1.93001e-52 1.15247e-52 6.80039e-53 3.96561e-53 2.28555e-53 1.302e-53 7.33163e-54 4.08128e-54 2.24612e-54 1.2222e-54 6.57598e-55 3.49873e-55 1.84073e-55 9.57376e-56 4.91565e-56 2.47648e-56 1.19189e-56 4.78811e-57 0 
0 1.82626e-74 6.12152e-74 1.85891e-73 5.54997e-73 1.64237e-72 4.8212e-72 1.40397e-71 4.05567e-71 1.16211e-70 3.30283e-70 9.3102e-70 2.60281e-69 7.21623e-69 1.984e-68 5.40891e-68 1.46215e-67 3.91886e-67 1.04134e-66 2.74322e-66 7.16378e-66 1.85442e-65 4.7581e-65 1.21001e-64 3.04967e-64 7.61714e-64 1.8853e-63 4.62373e-63 1.12356e-62 2.70499e-62 6.45162e-62 1.52433e-61 3.5675e-61 8.26979e-61 1.89863e-60 4.31689e-60 9.71973e-60 2.167e-59 4.78358e-59 1.04545e-58 2.26193e-58 4.84446e-58 1.027e-57 2.15486e-57 4.47464e-57 9.19502e-57 1.86969e-56 3.76159e-56 7.48731e-56 1.47433e-55 2.87174e-55 5.53273e-55 1.05425e-54 1.98663e-54 3.70191e-54 6.82081e-54 1.24253e-53 2.23773e-53 3.98379e-53 7.01035e-53 1.21927e-52 2.09577e-52 3.55987e-52 5.97498e-52 9.90867e-52 1.62345e-51 2.62767e-51 4.20129e-51 6.63501e-51 1.03494e-50 1.59434e-50 2.42552e-50 3.64387e-50 5.40547e-50 7.91759e-50 1.14505e-49 1.63496e-49 2.30478e-49 3.20761e-49 4.40712e-49 5.97789e-49 8.00498e-49 1.05827e-48 1.38126e-48 1.77993e-48 2.2647e-48 2.84529e-48 3.53012e-48 4.32557e-48 5.23536e-48 6.25984e-48 7.39554e-48 8.63483e-48 9.96585e-48 1.13727e-47 1.28361e-47 1.43336e-47 1.58413e-47 1.73343e-47 1.87884e-47 2.01808e-47 2.14912e-47 2.27031e-47 2.38035e-47 2.47838e-47 2.56397e-47 2.63706e-47 2.69794e-47 2.74719e-47 2.78557e-47 2.81402e-47 2.83351e-47 2.84506e-47 2.84966e-47 2.84825e-47 2.8417e-47 2.83079e-47 2.81624e-47 2.79869e-47 2.77873e-47 2.7569e-47 2.73369e-47 2.70959e-47 2.68504e-47 2.66051e-47 2.63641e-47 2.61318e-47 2.59122e-47 2.57092e-47 2.55264e-47 2.5367e-47 2.52336e-47 2.51283e-47 2.50522e-47 2.50056e-47 2.49879e-47 2.49972e-47 2.50306e-47 2.50842e-47 2.51531e-47 2.52316e-47 2.53137e-47 2.5393e-47 2.54634e-47 2.55193e-47 2.55562e-47 2.55704e-47 2.556e-47 2.55244e-47 2.54648e-47 2.53835e-47 2.52842e-47 2.51713e-47 2.50497e-47 2.49243e-47 2.47998e-47 2.468e-47 2.45681e-47 2.44659e-47 2.43745e-47 2.42937e-47 2.42226e-47 2.41601e-47 2.41043e-47 2.40538e-47 2.40075e-47 2.39647e-47 2.39254e-47 2.38908e-47 2.38625e-47 2.38432e-47 2.38359e-47 2.38441e-47 2.38717e-47 2.39225e-47 2.39997e-47 2.41064e-47 2.42448e-47 2.44162e-47 2.46208e-47 2.48577e-47 2.51243e-47 2.54167e-47 2.5729e-47 2.60536e-47 2.63806e-47 2.66985e-47 2.69931e-47 2.7249e-47 2.74486e-47 2.75735e-47 2.76049e-47 2.75241e-47 2.73138e-47 2.69593e-47 2.64489e-47 2.57756e-47 2.49373e-47 2.39378e-47 2.27865e-47 2.14988e-47 2.00953e-47 1.8601e-47 1.70438e-47 1.54539e-47 1.38614e-47 1.22958e-47 1.07838e-47 9.34876e-48 8.00972e-48 6.78085e-48 5.67138e-48 4.68568e-48 3.82372e-48 3.08168e-48 2.45269e-48 1.92763e-48 1.49591e-48 1.14623e-48 8.67186e-49 6.47767e-49 4.77736e-49 3.47873e-49 2.50104e-49 1.7754e-49 1.2444e-49 8.61234e-50 5.8857e-50 3.97199e-50 2.64711e-50 1.74225e-50 1.13253e-50 7.27132e-51 4.61135e-51 2.88884e-51 1.78783e-51 1.09312e-51 6.60361e-52 3.9418e-52 2.32511e-52 1.35537e-52 7.8086e-53 4.44655e-53 2.50289e-53 1.39272e-53 7.66167e-54 4.16731e-54 2.24126e-54 1.19196e-54 6.26843e-55 3.25888e-55 1.67257e-55 8.42298e-56 4.05239e-56 1.62752e-56 0 
0 5.5367e-74 1.85633e-73 5.63878e-73 1.68404e-72 4.98511e-72 1.46386e-71 4.26432e-71 1.23226e-70 3.53214e-70 1.00423e-69 2.8318e-69 7.91967e-69 2.19654e-68 6.0414e-68 1.64769e-67 4.45585e-67 1.19475e-66 3.17606e-66 8.37029e-66 2.18679e-65 5.66322e-65 1.45372e-64 3.69857e-64 9.32599e-64 2.33043e-63 5.77074e-63 1.41596e-62 3.44245e-62 8.29183e-62 1.97866e-61 4.67738e-61 1.09525e-60 2.54021e-60 5.83505e-60 1.32742e-59 2.99037e-59 6.67064e-59 1.47333e-58 3.22177e-58 6.97451e-58 1.49461e-57 3.17029e-57 6.65577e-57 1.38289e-56 2.8434e-56 5.78506e-56 1.16457e-55 2.3194e-55 4.56984e-55 8.90651e-55 1.71695e-54 3.27353e-54 6.17228e-54 1.15083e-53 2.12164e-53 3.86718e-53 6.96854e-53 1.2413e-52 2.18556e-52 3.80332e-52 6.54095e-52 1.11163e-51 1.86676e-51 3.09732e-51 5.07718e-51 8.22172e-51 1.31514e-50 2.07789e-50 3.2425e-50 4.99709e-50 7.60508e-50 1.14292e-49 1.69601e-49 2.48494e-49 3.5947e-49 5.13392e-49 7.2387e-49 1.00759e-48 1.38458e-48 1.87824e-48 2.51528e-48 3.3253e-48 4.34003e-48 5.59229e-48 7.11448e-48 8.93685e-48 1.10854e-47 1.35796e-47 1.64303e-47 1.9638e-47 2.31908e-47 2.70636e-47 3.12183e-47 3.5604e-47 4.01589e-47 4.48124e-47 4.94887e-47 5.41097e-47 5.85994e-47 6.28868e-47 6.69099e-47 7.06172e-47 7.39704e-47 7.69444e-47 7.95272e-47 8.17193e-47 8.35318e-47 8.49843e-47 8.61027e-47 8.6917e-47 8.74592e-47 8.77617e-47 8.78556e-47 8.77702e-47 8.75325e-47 8.71666e-47 8.66941e-47 8.61345e-47 8.55051e-47 8.4822e-47 8.41e-47 8.33532e-47 8.2595e-47 8.18388e-47 8.10974e-47 8.03835e-47 7.97095e-47 7.90869e-47 7.85266e-47 7.80383e-47 7.763e-47 7.73078e-47 7.70754e-47 7.69337e-47 7.68803e-47 7.691e-47 7.70136e-47 7.71793e-47 7.73918e-47 7.7634e-47 7.7887e-47 7.81316e-47 7.83488e-47 7.85217e-47 7.86358e-47 7.86806e-47 7.86498e-47 7.85419e-47 7.836e-47 7.81116e-47 7.78079e-47 7.74625e-47 7.70905e-47 7.6707e-47 7.63262e-47 7.59601e-47 7.5618e-47 7.53059e-47 7.50267e-47 7.478e-47 7.45633e-47 7.43723e-47 7.42021e-47 7.40479e-47 7.39061e-47 7.37748e-47 7.36545e-47 7.3548e-47 7.3461e-47 7.34012e-47 7.33784e-47 7.34037e-47 7.34886e-47 7.36447e-47 7.38828e-47 7.42122e-47 7.46399e-47 7.51702e-47 7.58042e-47 7.65393e-47 7.73682e-47 7.8279e-47 7.92545e-47 8.02713e-47 8.13e-47 8.23045e-47 8.32425e-47 8.40655e-47 8.47196e-47 8.51476e-47 8.52904e-47 8.50896e-47 8.44908e-47 8.34465e-47 8.19197e-47 7.98867e-47 7.73396e-47 7.42884e-47 7.07614e-47 6.68051e-47 6.24825e-47 5.78705e-47 5.30562e-47 4.81329e-47 4.31952e-47 3.83346e-47 3.36355e-47 2.91714e-47 2.50024e-47 2.11735e-47 1.77144e-47 1.46394e-47 1.1949e-47 9.63195e-48 7.66714e-48 6.02645e-48 4.6771e-48 3.58395e-48 2.71148e-48 2.02536e-48 1.49364e-48 1.08753e-48 7.81793e-49 5.54887e-49 3.88859e-49 2.69071e-49 1.83843e-49 1.24036e-49 8.26408e-50 5.43759e-50 3.53353e-50 2.26792e-50 1.43777e-50 9.00379e-51 5.57008e-51 3.40432e-51 2.05571e-51 1.22657e-51 7.23184e-52 4.21374e-52 2.42652e-52 1.38112e-52 7.77038e-53 4.3217e-53 2.3763e-53 1.29187e-53 6.94445e-54 3.69137e-54 1.94028e-54 1.00822e-54 5.17194e-55 2.6033e-55 1.25193e-55 5.02644e-56 0 
0 1.65022e-73 5.53426e-73 1.68161e-72 5.02385e-72 1.48767e-71 4.37001e-71 1.27346e-70 3.68125e-70 1.05558e-69 3.00226e-69 8.46926e-69 2.36951e-68 6.57452e-68 1.809e-67 4.93578e-67 1.33535e-66 3.582e-66 9.52637e-66 2.51173e-65 6.56502e-65 1.70095e-64 4.3683e-64 1.11192e-63 2.80507e-63 7.01292e-63 1.73744e-62 4.2653e-62 1.0375e-61 2.50034e-61 5.96968e-61 1.41193e-60 3.30796e-60 7.67639e-60 1.76431e-59 4.0159e-59 9.05209e-59 2.02042e-58 4.46508e-58 9.76963e-58 2.1162e-57 4.53763e-57 9.63085e-57 2.02315e-56 4.20615e-56 8.65367e-56 1.76173e-55 3.54868e-55 7.07208e-55 1.39426e-54 2.71908e-54 5.24497e-54 1.00063e-53 1.88787e-53 3.52212e-53 6.4973e-53 1.18501e-52 2.13664e-52 3.80825e-52 6.70916e-52 1.16821e-51 2.01024e-51 3.41831e-51 5.74351e-51 9.53473e-51 1.56376e-50 2.53355e-50 4.05463e-50 6.40919e-50 1.00059e-49 1.54268e-49 2.34874e-49 3.53109e-49 5.24168e-49 7.6824e-49 1.11165e-48 1.58805e-48 2.2396e-48 3.11799e-48 4.28517e-48 5.81361e-48 7.7859e-48 1.02934e-47 1.34341e-47 1.7309e-47 2.20177e-47 2.76525e-47 3.42926e-47 4.19963e-47 5.07953e-47 6.06878e-47 7.16341e-47 8.35538e-47 9.63251e-47 1.09788e-46 1.23747e-46 1.37984e-46 1.52261e-46 1.66337e-46 1.79977e-46 1.92965e-46 2.05111e-46 2.16261e-46 2.26303e-46 2.35164e-46 2.42814e-46 2.49261e-46 2.54546e-46 2.58736e-46 2.61914e-46 2.64178e-46 2.6563e-46 2.66371e-46 2.66498e-46 2.66102e-46 2.65264e-46 2.64057e-46 2.62545e-46 2.60786e-46 2.58831e-46 2.56727e-46 2.54515e-46 2.52237e-46 2.49932e-46 2.47639e-46 2.45394e-46 2.43236e-46 2.41201e-46 2.39323e-46 2.37634e-46 2.36162e-46 2.34933e-46 2.33964e-46 2.33266e-46 2.32842e-46 2.32684e-46 2.32777e-46 2.33093e-46 2.33597e-46 2.34242e-46 2.34977e-46 2.35745e-46 2.36486e-46 2.37146e-46 2.37672e-46 2.3802e-46 2.38159e-46 2.38069e-46 2.37747e-46 2.37201e-46 2.36455e-46 2.35542e-46 2.34503e-46 2.33383e-46 2.3223e-46 2.31085e-46 2.29984e-46 2.28956e-46 2.28018e-46 2.2718e-46 2.2644e-46 2.2579e-46 2.25216e-46 2.24705e-46 2.24242e-46 2.23815e-46 2.23419e-46 2.23056e-46 2.22734e-46 2.22471e-46 2.22289e-46 2.2222e-46 2.22295e-46 2.22552e-46 2.23025e-46 2.23748e-46 2.24748e-46 2.26049e-46 2.27664e-46 2.29598e-46 2.31843e-46 2.3438e-46 2.37174e-46 2.40174e-46 2.43311e-46 2.46498e-46 2.49626e-46 2.52568e-46 2.55176e-46 2.57288e-46 2.58726e-46 2.5931e-46 2.5886e-46 2.57205e-46 2.54198e-46 2.4972e-46 2.43693e-46 2.3609e-46 2.26935e-46 2.16311e-46 2.04355e-46 1.91258e-46 1.77253e-46 1.62606e-46 1.47602e-46 1.32532e-46 1.17678e-46 1.03302e-46 8.96301e-47 7.68507e-47 6.51048e-47 5.44856e-47 4.50398e-47 3.67712e-47 2.96465e-47 2.36026e-47 1.85541e-47 1.44009e-47 1.10355e-47 8.34913e-48 6.23628e-48 4.59879e-48 3.3481e-48 2.40655e-48 1.70782e-48 1.1966e-48 8.27814e-49 5.65469e-49 3.81415e-49 2.5405e-49 1.67108e-49 1.08556e-49 6.965e-50 4.4139e-50 2.76305e-50 1.70863e-50 1.04384e-50 6.30053e-51 3.75759e-51 2.21445e-51 1.28967e-51 7.4231e-52 4.22296e-52 2.37471e-52 1.32008e-52 7.25476e-53 3.94197e-53 2.11789e-53 1.12518e-53 5.91109e-54 3.0699e-54 1.57396e-54 7.91848e-55 3.80629e-55 1.52769e-55 0 
0 4.87496e-73 1.63533e-72 4.97061e-72 1.48549e-71 4.40037e-71 1.29307e-70 3.76947e-70 1.09006e-69 3.12688e-69 8.89685e-69 2.51076e-68 7.02736e-68 1.95063e-67 5.36945e-67 1.46566e-66 3.96696e-66 1.06459e-65 2.83255e-65 7.47174e-65 1.95383e-64 5.06463e-64 1.3013e-63 3.31398e-63 8.36444e-63 2.09224e-62 5.18616e-62 1.27383e-61 3.10014e-61 7.47523e-61 1.78572e-60 4.22587e-60 9.90615e-60 2.30011e-59 5.28952e-59 1.20469e-58 2.71705e-58 6.06805e-58 1.34183e-57 2.93772e-57 6.36728e-57 1.36614e-56 2.90136e-56 6.09871e-56 1.26873e-55 2.61192e-55 5.3208e-55 1.07246e-54 2.13866e-54 4.21908e-54 8.23333e-54 1.58919e-53 3.03378e-53 5.72746e-53 1.06923e-52 1.97368e-52 3.60196e-52 6.4986e-52 1.159e-51 2.0431e-51 3.55963e-51 6.12898e-51 1.04281e-50 1.75314e-50 2.91197e-50 4.77841e-50 7.74583e-50 1.24025e-49 1.96142e-49 3.06353e-49 4.72533e-49 7.19735e-49 1.08247e-48 1.60743e-48 2.35669e-48 3.41115e-48 4.8743e-48 6.87571e-48 9.57424e-48 1.31602e-47 1.78562e-47 2.39156e-47 3.16185e-47 4.12648e-47 5.31631e-47 6.76167e-47 8.49062e-47 1.05269e-46 1.28881e-46 1.55829e-46 1.86101e-46 2.19565e-46 2.55964e-46 2.94914e-46 3.35912e-46 3.78353e-46 4.21555e-46 4.64787e-46 5.07307e-46 5.48399e-46 5.87402e-46 6.23748e-46 6.56978e-46 6.86761e-46 7.12898e-46 7.35316e-46 7.54062e-46 7.69278e-46 7.81186e-46 7.90063e-46 7.96217e-46 7.9997e-46 8.01637e-46 8.01518e-46 7.99888e-46 7.96995e-46 7.93056e-46 7.88261e-46 7.82776e-46 7.7675e-46 7.70316e-46 7.63595e-46 7.56703e-46 7.49754e-46 7.42857e-46 7.3612e-46 7.29653e-46 7.2356e-46 7.17942e-46 7.12894e-46 7.085e-46 7.04831e-46 7.01941e-46 6.99863e-46 6.98603e-46 6.98143e-46 6.98432e-46 6.99389e-46 7.00907e-46 7.02849e-46 7.05059e-46 7.07367e-46 7.09599e-46 7.11585e-46 7.13169e-46 7.14222e-46 7.14649e-46 7.14392e-46 7.13438e-46 7.11816e-46 7.09593e-46 7.0687e-46 7.03772e-46 7.00434e-46 6.96995e-46 6.9358e-46 6.903e-46 6.87238e-46 6.84447e-46 6.81952e-46 6.7975e-46 6.77816e-46 6.76111e-46 6.7459e-46 6.7321e-46 6.71937e-46 6.70755e-46 6.69668e-46 6.68703e-46 6.67911e-46 6.67365e-46 6.67154e-46 6.6738e-46 6.6815e-46 6.69571e-46 6.71745e-46 6.7476e-46 6.78683e-46 6.83561e-46 6.8941e-46 6.96213e-46 7.03914e-46 7.12415e-46 7.21569e-46 7.31173e-46 7.40969e-46 7.50634e-46 7.59788e-46 7.67987e-46 7.74739e-46 7.7951e-46 7.81747e-46 7.80895e-46 7.76432e-46 7.67896e-46 7.54915e-46 7.37238e-46 7.14762e-46 6.87549e-46 6.55834e-46 6.20023e-46 5.80684e-46 5.38517e-46 4.94328e-46 4.48982e-46 4.03368e-46 3.58347e-46 3.14721e-46 2.73191e-46 2.34334e-46 1.98591e-46 1.66252e-46 1.37469e-46 1.12258e-46 9.05256e-47 7.20821e-47 5.66707e-47 4.39889e-47 3.37106e-47 2.55045e-47 1.90498e-47 1.40469e-47 1.02257e-47 7.3491e-48 5.21448e-48 3.65289e-48 2.52654e-48 1.72543e-48 1.1635e-48 7.74748e-49 5.09448e-49 3.30834e-49 2.12187e-49 1.34417e-49 8.41098e-50 5.19906e-50 3.17484e-50 1.91544e-50 1.14183e-50 6.72591e-51 3.91519e-51 2.25238e-51 1.28071e-51 7.19815e-52 3.99929e-52 2.19672e-52 1.19297e-52 6.40597e-53 3.40146e-53 1.78596e-53 9.27022e-54 4.75031e-54 2.3886e-54 1.14762e-54 4.60452e-55 0 
0 1.42855e-72 4.79342e-72 1.45745e-71 4.35716e-71 1.29115e-70 3.79548e-70 1.10685e-69 3.20202e-69 9.18864e-69 2.61546e-68 7.38398e-68 2.06755e-67 5.74144e-67 1.58111e-66 4.31769e-66 1.16915e-65 3.13898e-65 8.35573e-65 2.20511e-64 5.76903e-64 1.49615e-63 3.84607e-63 9.79957e-63 2.47466e-62 6.1932e-62 1.53595e-61 3.77464e-61 9.19137e-61 2.21749e-60 5.30021e-60 1.255e-59 2.94361e-59 6.83875e-59 1.57362e-58 3.58608e-58 8.09288e-58 1.8085e-57 4.00162e-57 8.76635e-57 1.90124e-56 4.08181e-56 8.67435e-56 1.82454e-55 3.79809e-55 7.82419e-55 1.59493e-54 3.21686e-54 6.41915e-54 1.26719e-53 2.47449e-53 4.77941e-53 9.12998e-53 1.72478e-52 3.22202e-52 5.95137e-52 1.08683e-51 1.9621e-51 3.50154e-51 6.17646e-51 1.07677e-50 1.85511e-50 3.15824e-50 5.31265e-50 8.82938e-50 1.44966e-49 2.35117e-49 3.7666e-49 5.95975e-49 9.31293e-49 1.43712e-48 2.18987e-48 3.29484e-48 4.89456e-48 7.17846e-48 1.03936e-47 1.48557e-47 2.09606e-47 2.91929e-47 4.01333e-47 5.44605e-47 7.29465e-47 9.64442e-47 1.25865e-46 1.62145e-46 2.06202e-46 2.5888e-46 3.20892e-46 3.9275e-46 4.74704e-46 5.66685e-46 6.68264e-46 7.78625e-46 8.96565e-46 1.02052e-45 1.14862e-45 1.27875e-45 1.40869e-45 1.53616e-45 1.659e-45 1.7752e-45 1.88308e-45 1.98127e-45 2.06883e-45 2.1452e-45 2.21024e-45 2.26414e-45 2.3074e-45 2.34075e-45 2.36509e-45 2.38139e-45 2.39065e-45 2.39386e-45 2.39193e-45 2.38569e-45 2.37589e-45 2.36316e-45 2.34807e-45 2.33109e-45 2.31265e-45 2.29312e-45 2.27284e-45 2.25215e-45 2.23135e-45 2.21077e-45 2.1907e-45 2.17147e-45 2.15337e-45 2.1367e-45 2.12173e-45 2.10871e-45 2.09785e-45 2.0893e-45 2.08317e-45 2.07946e-45 2.07812e-45 2.07901e-45 2.08189e-45 2.08643e-45 2.09222e-45 2.09882e-45 2.10571e-45 2.11237e-45 2.1183e-45 2.12304e-45 2.1262e-45 2.1275e-45 2.12677e-45 2.12397e-45 2.11918e-45 2.11261e-45 2.10456e-45 2.0954e-45 2.08553e-45 2.07535e-45 2.06525e-45 2.05556e-45 2.04651e-45 2.03827e-45 2.0309e-45 2.0244e-45 2.0187e-45 2.01367e-45 2.00918e-45 2.0051e-45 2.00133e-45 1.99783e-45 1.9946e-45 1.99173e-45 1.98937e-45 1.98774e-45 1.98711e-45 1.98778e-45 1.99007e-45 1.99431e-45 2.0008e-45 2.00981e-45 2.02156e-45 2.03618e-45 2.05374e-45 2.0742e-45 2.09741e-45 2.12308e-45 2.15081e-45 2.18e-45 2.20989e-45 2.23954e-45 2.26781e-45 2.2934e-45 2.3148e-45 2.33044e-45 2.33861e-45 2.33765e-45 2.32595e-45 2.30207e-45 2.26486e-45 2.21352e-45 2.14768e-45 2.06749e-45 1.97359e-45 1.86719e-45 1.74996e-45 1.62399e-45 1.4917e-45 1.3557e-45 1.21867e-45 1.08324e-45 9.51835e-46 8.26609e-46 7.09334e-46 6.01361e-46 5.03602e-46 4.16532e-46 3.40228e-46 2.74417e-46 2.18543e-46 1.71839e-46 1.33396e-46 1.02232e-46 7.73461e-47 5.77693e-47 4.25952e-47 3.10049e-47 2.22799e-47 1.58059e-47 1.10703e-47 7.65513e-48 5.22653e-48 3.52342e-48 2.34545e-48 1.54178e-48 1.00088e-48 6.41695e-49 4.06345e-49 2.5416e-49 1.57036e-49 9.58526e-50 5.78031e-50 3.44411e-50 2.02775e-50 1.17977e-50 6.78368e-51 3.85523e-51 2.16565e-51 1.20259e-51 6.60193e-52 3.58334e-52 1.92309e-52 1.02056e-52 5.3555e-53 2.77826e-53 1.42286e-53 7.1507e-54 3.43397e-54 1.3773e-54 0 
0 4.15268e-72 1.3938e-71 4.23931e-71 1.26782e-70 3.75829e-70 1.1052e-69 3.22423e-69 9.33104e-69 2.67873e-68 7.62781e-68 2.15437e-67 6.03488e-67 1.67656e-66 4.619e-66 1.26192e-65 3.41858e-65 9.18258e-65 2.44548e-64 6.45681e-64 1.69006e-63 4.38518e-63 1.12785e-62 2.87516e-62 7.26434e-62 1.81897e-61 4.51359e-61 1.10983e-60 2.70398e-60 6.52725e-60 1.56102e-59 3.69837e-59 8.67967e-59 2.01771e-58 4.64562e-58 1.05932e-57 2.39211e-57 5.34895e-57 1.18429e-56 2.59609e-56 5.634e-56 1.21037e-55 2.57386e-55 5.41736e-55 1.12847e-54 2.32624e-54 4.74513e-54 9.57706e-54 1.91237e-53 3.77773e-53 7.38194e-53 1.42677e-52 2.72737e-52 5.15587e-52 9.63806e-52 1.78143e-51 3.25538e-51 5.88097e-51 1.0502e-50 1.85367e-50 3.23364e-50 5.57456e-50 9.49626e-50 1.59838e-49 2.65799e-49 4.36653e-49 7.0859e-49 1.13577e-48 1.79801e-48 2.81102e-48 4.33984e-48 6.61593e-48 9.95832e-48 1.4799e-47 2.17121e-47 3.14466e-47 4.49601e-47 6.34517e-47 8.83908e-47 1.21537e-46 1.64945e-46 2.20951e-46 2.92133e-46 3.81242e-46 4.91098e-46 6.24458e-46 7.83848e-46 9.71379e-46 1.18855e-45 1.43604e-45 1.71357e-45 2.01974e-45 2.35199e-45 2.70657e-45 3.07866e-45 3.46249e-45 3.85164e-45 4.23929e-45 4.61857e-45 4.98294e-45 5.32643e-45 5.644e-45 5.9317e-45 6.18681e-45 6.40786e-45 6.59457e-45 6.74777e-45 6.86914e-45 6.96108e-45 7.02642e-45 7.06822e-45 7.08961e-45 7.09358e-45 7.08294e-45 7.06018e-45 7.0275e-45 6.9868e-45 6.93967e-45 6.88748e-45 6.83144e-45 6.77257e-45 6.71184e-45 6.65016e-45 6.58839e-45 6.52742e-45 6.46813e-45 6.41137e-45 6.35804e-45 6.30896e-45 6.26492e-45 6.22665e-45 6.19474e-45 6.16966e-45 6.15168e-45 6.14086e-45 6.13702e-45 6.13974e-45 6.1483e-45 6.16177e-45 6.17894e-45 6.19847e-45 6.21886e-45 6.23858e-45 6.25615e-45 6.27021e-45 6.27963e-45 6.28356e-45 6.2815e-45 6.27335e-45 6.25935e-45 6.2401e-45 6.21649e-45 6.1896e-45 6.16062e-45 6.13076e-45 6.10114e-45 6.07271e-45 6.04618e-45 6.02203e-45 6.00046e-45 5.98143e-45 5.96474e-45 5.95002e-45 5.93687e-45 5.92492e-45 5.91386e-45 5.90356e-45 5.89406e-45 5.88559e-45 5.87863e-45 5.8738e-45 5.87191e-45 5.87387e-45 5.88064e-45 5.89319e-45 5.91243e-45 5.93917e-45 5.97407e-45 6.01757e-45 6.0699e-45 6.13097e-45 6.20039e-45 6.27739e-45 6.36076e-45 6.44883e-45 6.53939e-45 6.62969e-45 6.71638e-45 6.79559e-45 6.8629e-45 6.91352e-45 6.94241e-45 6.94447e-45 6.91484e-45 6.84912e-45 6.74371e-45 6.59608e-45 6.40499e-45 6.17069e-45 5.89502e-45 5.58144e-45 5.23484e-45 4.86143e-45 4.4684e-45 4.06358e-45 3.65502e-45 3.25064e-45 2.85778e-45 2.48297e-45 2.13161e-45 1.80783e-45 1.51446e-45 1.25298e-45 1.02371e-45 8.25861e-46 6.57816e-46 5.173e-46 4.01605e-46 3.07795e-46 2.32872e-46 1.73925e-46 1.28232e-46 9.33299e-47 6.70571e-47 4.75639e-47 3.33067e-47 2.30263e-47 1.57172e-47 1.05925e-47 7.04899e-48 4.63211e-48 3.00595e-48 1.92648e-48 1.21942e-48 7.62405e-49 4.70855e-49 2.87272e-49 1.73155e-49 1.03122e-49 6.06835e-50 3.52884e-50 2.02802e-50 1.15193e-50 6.46736e-51 3.58935e-51 1.96937e-51 1.06832e-51 5.73014e-52 3.03916e-52 1.59391e-52 8.26392e-53 4.22987e-53 2.12459e-53 1.01978e-53 4.0887e-54 0 
0 1.19745e-71 4.02024e-71 1.22319e-70 3.65945e-70 1.0852e-69 3.19244e-69 9.31702e-69 2.69744e-68 7.74685e-68 2.20686e-67 6.2356e-67 1.74748e-66 4.85681e-66 1.33867e-65 3.65893e-65 9.91673e-65 2.66497e-64 7.10068e-64 1.87571e-63 4.91207e-63 1.27518e-62 3.28138e-62 8.36943e-62 2.11574e-61 5.30062e-61 1.31602e-60 3.23773e-60 7.89283e-60 1.90638e-59 4.56187e-59 1.08144e-58 2.53955e-58 5.90713e-58 1.36091e-57 3.10518e-57 7.01641e-57 1.56993e-56 3.47819e-56 7.62954e-56 1.65685e-55 3.56182e-55 7.57936e-55 1.59635e-54 3.32757e-54 6.86421e-54 1.40114e-53 2.82988e-53 5.65471e-53 1.11782e-52 2.18582e-52 4.22767e-52 8.0871e-52 1.52986e-51 2.86181e-51 5.29321e-51 9.67941e-51 1.74981e-50 3.12684e-50 5.52273e-50 9.64043e-50 1.66301e-49 2.83473e-49 4.77426e-49 7.94404e-49 1.30581e-48 2.12024e-48 3.40032e-48 5.3858e-48 8.42444e-48 1.30125e-47 1.98461e-47 2.98851e-47 4.44296e-47 6.5208e-47 9.44749e-47 1.35113e-46 1.90733e-46 2.65756e-46 3.65477e-46 4.96075e-46 6.64571e-46 8.78702e-46 1.14671e-45 1.47705e-45 1.87791e-45 2.35682e-45 2.91997e-45 3.5717e-45 4.31387e-45 5.14536e-45 6.06171e-45 7.05489e-45 8.11333e-45 9.22223e-45 1.0364e-44 1.15192e-44 1.26671e-44 1.37871e-44 1.48596e-44 1.58668e-44 1.6794e-44 1.76298e-44 1.83663e-44 1.89998e-44 1.95302e-44 1.99603e-44 2.0296e-44 2.05449e-44 2.0716e-44 2.08187e-44 2.08628e-44 2.08574e-44 2.08109e-44 2.07307e-44 2.06234e-44 2.04945e-44 2.03485e-44 2.01892e-44 2.00201e-44 1.9844e-44 1.96634e-44 1.94809e-44 1.92988e-44 1.91196e-44 1.89457e-44 1.87795e-44 1.86236e-44 1.84802e-44 1.83517e-44 1.82401e-44 1.81471e-44 1.80741e-44 1.80219e-44 1.79905e-44 1.79796e-44 1.79878e-44 1.80131e-44 1.80528e-44 1.81033e-44 1.81606e-44 1.82205e-44 1.82784e-44 1.83301e-44 1.83715e-44 1.83993e-44 1.84111e-44 1.84054e-44 1.83818e-44 1.83412e-44 1.82852e-44 1.82165e-44 1.81382e-44 1.80539e-44 1.7967e-44 1.78808e-44 1.7798e-44 1.77209e-44 1.76507e-44 1.75881e-44 1.75328e-44 1.74844e-44 1.74416e-44 1.74035e-44 1.73687e-44 1.73365e-44 1.73065e-44 1.72787e-44 1.72539e-44 1.72335e-44 1.72193e-44 1.72138e-44 1.72195e-44 1.72393e-44 1.72762e-44 1.73328e-44 1.74115e-44 1.75144e-44 1.76429e-44 1.77976e-44 1.79786e-44 1.81847e-44 1.84139e-44 1.86628e-44 1.89266e-44 1.9199e-44 1.9472e-44 1.97359e-44 1.99792e-44 2.01891e-44 2.03512e-44 2.04504e-44 2.04717e-44 2.04001e-44 2.02224e-44 1.99275e-44 1.95073e-44 1.89579e-44 1.82793e-44 1.74768e-44 1.656e-44 1.55434e-44 1.44452e-44 1.32865e-44 1.20907e-44 1.08817e-44 9.68331e-45 8.51752e-45 7.40397e-45 6.35901e-45 5.39523e-45 4.52125e-45 3.74178e-45 3.05787e-45 2.46741e-45 1.96568e-45 1.54598e-45 1.20032e-45 9.19981e-46 6.96044e-46 5.19837e-46 3.83239e-46 2.78901e-46 2.00361e-46 1.42092e-46 9.94799e-47 6.87584e-47 4.69202e-47 3.16126e-47 2.10304e-47 1.3815e-47 8.96177e-48 5.74126e-48 3.63262e-48 2.2702e-48 1.40143e-48 8.54621e-49 5.14881e-49 3.06482e-49 1.80262e-49 1.0477e-49 6.01789e-50 3.41633e-50 1.917e-50 1.06332e-50 5.83082e-51 3.16119e-51 1.69458e-51 8.98246e-52 4.70815e-52 2.43958e-52 1.24796e-52 6.26476e-53 3.00552e-53 1.20458e-53 0 
0 3.42497e-71 1.15021e-70 3.50084e-70 1.04774e-69 3.1082e-69 9.14728e-69 2.67065e-68 7.73512e-68 2.22238e-67 6.33361e-67 1.79036e-66 5.01953e-66 1.39571e-65 3.84871e-65 1.05244e-64 2.85375e-64 7.67271e-64 2.04536e-63 5.4057e-63 1.41635e-62 3.67877e-62 9.47146e-62 2.41707e-61 6.11352e-61 1.53249e-60 3.80695e-60 9.37138e-60 2.28585e-59 5.52436e-59 1.32274e-58 3.13761e-58 7.3726e-58 1.71598e-57 3.95586e-57 9.03184e-57 2.04214e-56 4.57232e-56 1.01367e-55 2.22502e-55 4.83517e-55 1.04016e-54 2.21492e-54 4.66828e-54 9.73775e-54 2.01015e-53 4.10608e-53 8.29893e-53 1.65949e-52 3.2828e-52 6.42389e-52 1.24336e-51 2.38012e-51 4.50576e-51 8.43461e-51 1.56117e-50 2.85683e-50 5.16807e-50 9.2415e-50 1.63338e-49 2.85313e-49 4.92501e-49 8.40049e-49 1.41571e-48 2.35711e-48 3.87686e-48 6.29852e-48 1.01069e-47 1.60171e-47 2.5067e-47 3.87378e-47 5.91089e-47 8.90479e-47 1.3244e-46 1.94452e-46 2.81822e-46 4.03171e-46 5.69289e-46 7.93395e-46 1.0913e-45 1.48147e-45 1.98484e-45 2.62449e-45 3.42495e-45 4.41128e-45 5.60782e-45 7.03667e-45 8.71596e-45 1.06581e-44 1.2868e-44 1.53416e-44 1.80648e-44 2.10125e-44 2.41494e-44 2.74304e-44 3.08022e-44 3.4206e-44 3.75799e-44 4.0862e-44 4.39942e-44 4.69243e-44 4.9609e-44 5.20154e-44 5.41223e-44 5.59198e-44 5.74093e-44 5.86017e-44 5.95157e-44 6.01758e-44 6.06099e-44 6.08477e-44 6.09185e-44 6.08501e-44 6.06676e-44 6.03931e-44 6.00457e-44 5.96411e-44 5.91923e-44 5.871e-44 5.82033e-44 5.768e-44 5.7147e-44 5.6611e-44 5.60783e-44 5.55556e-44 5.50495e-44 5.45669e-44 5.41144e-44 5.3699e-44 5.33269e-44 5.3004e-44 5.27353e-44 5.25245e-44 5.23739e-44 5.22839e-44 5.22531e-44 5.22777e-44 5.2352e-44 5.24677e-44 5.26149e-44 5.2782e-44 5.29565e-44 5.31253e-44 5.32759e-44 5.33968e-44 5.34783e-44 5.35133e-44 5.34976e-44 5.34302e-44 5.33133e-44 5.31519e-44 5.29536e-44 5.27276e-44 5.2484e-44 5.22331e-44 5.19843e-44 5.17456e-44 5.15231e-44 5.13208e-44 5.11402e-44 5.09812e-44 5.08417e-44 5.07186e-44 5.06086e-44 5.05084e-44 5.04154e-44 5.03285e-44 5.0248e-44 5.01761e-44 5.01168e-44 5.00755e-44 5.00592e-44 5.00757e-44 5.01335e-44 5.02409e-44 5.04061e-44 5.06363e-44 5.09374e-44 5.13138e-44 5.17681e-44 5.23002e-44 5.29078e-44 5.35849e-44 5.43223e-44 5.51067e-44 5.59201e-44 5.67394e-44 5.75367e-44 5.82786e-44 5.89273e-44 5.94406e-44 5.97742e-44 5.98825e-44 5.97215e-44 5.92506e-44 5.84362e-44 5.72532e-44 5.56882e-44 5.37405e-44 5.14238e-44 4.87659e-44 4.58079e-44 4.26031e-44 3.92137e-44 3.57083e-44 3.21581e-44 2.86332e-44 2.51996e-44 2.19159e-44 1.88312e-44 1.59835e-44 1.3399e-44 1.10924e-44 9.06735e-45 7.31807e-45 5.83098e-45 4.58658e-45 3.56139e-45 2.72972e-45 2.06527e-45 1.54238e-45 1.13701e-45 8.27362e-46 5.94286e-46 4.21382e-46 2.94951e-46 2.03815e-46 1.39044e-46 9.36531e-47 6.22829e-47 4.08995e-47 2.65215e-47 1.6984e-47 1.07416e-47 6.70999e-48 4.14027e-48 2.52363e-48 1.51965e-48 9.04109e-49 5.31486e-49 3.08741e-49 1.7724e-49 1.00562e-49 5.63963e-50 3.1264e-50 1.71338e-50 9.28365e-51 4.97362e-51 2.63478e-51 1.38018e-51 7.14725e-52 3.65397e-52 1.83323e-52 8.7904e-53 3.52178e-53 0 