# vtk DataFile Version 3.0
Gray-Scott Simulation Output
ASCII
DATASET STRUCTURED_POINTS
DIMENSIONS 256 256 1
SPACING 1.0 1.0 1.0
ORIGIN 0 0 0
POINT_DATA 65536
SCALARS u double
LOOKUP_TABLE default
0 0 0 0 0 0 0 0 0 0 0 0 0 0 0 0 0 0 0 0 0 0 0 0 0 0 0 0 0 0 0 0 0 0 0 0 0 0 0 0 0 0 0 0 0 0 0 0 0 0 0 0 0 0 0 0 0 0 0 0 0 0 0 0 0 0 0 0 0 0 0 0 0 0 0 0 0 0 0 0 0 0 0 0 0 0 0 0 0 0 0 0 0 0 0 0 0 0 0 0 0 0 0 0 0 0 0 0 0 0 0 0 0 0 0 0 0 0 0 0 0 0 0 0 0 0 0 0 0 0 0 0 0 0 0 0 0 0 0 0 0 0 0 0 0 0 0 0 0 0 0 0 0 0 0 0 0 0 0 0 0 0 0 0 0 0 0 0 0 0 0 0 0 0 0 0 0 0 0 0 0 0 0 0 0 0 0 0 0 0 0 0 0 0 0 0 0 0 0 0 0 0 0 0 0 0 0 0 0 0 0 0 0 0 0 0 0 0 0 0 0 0 0 0 0 0 0 0 0 0 0 0 0 0 0 0 0 0 0 0 0 0 0 0 0 0 0 0 0 0 0 0 0 0 0 0 
0 2.54765e-76 8.84833e-76 2.80187e-75 8.73289e-75 2.69787e-74 8.26631e-74 2.51209e-73 7.57128e-73 2.26303e-72 6.70775e-72 1.97152e-71 5.74565e-71 1.66022e-70 4.75616e-70 1.35078e-69 3.80296e-69 1.06132e-68 2.9358e-68 8.04892e-68 2.18702e-67 5.88902e-67 1.57138e-66 4.15468e-66 1.08839e-65 2.82483e-65 7.26326e-65 1.85e-64 4.6675e-64 1.16637e-63 2.88668e-63 7.07522e-63 1.71722e-62 4.12694e-62 9.82002e-62 2.31337e-61 5.39503e-61 1.24545e-60 2.8458e-60 6.43575e-60 1.44036e-59 3.19e-59 6.99064e-59 1.51571e-58 3.25129e-58 6.89912e-58 1.44809e-57 3.00626e-57 6.17228e-57 1.25319e-56 2.51597e-56 4.99423e-56 9.801e-56 1.9014e-55 3.64616e-55 6.91072e-55 1.29448e-54 2.39614e-54 4.38265e-54 7.92011e-54 1.41402e-53 2.49387e-53 4.34458e-53 7.47548e-53 1.27032e-52 2.13173e-52 3.53233e-52 5.7792e-52 9.33505e-52 1.4886e-51 2.34324e-51 3.64089e-51 5.58369e-51 8.45149e-51 1.26247e-50 1.86106e-50 2.7073e-50 3.88628e-50 5.50478e-50 7.69393e-50 1.06109e-49 1.44397e-49 1.93895e-49 2.56918e-49 3.35935e-49 4.33486e-49 5.52062e-49 6.93956e-49 8.61108e-49 1.05493e-48 1.27614e-48 1.52461e-48 1.7993e-48 2.09813e-48 2.41805e-48 2.75508e-48 3.10444e-48 3.46079e-48 3.81841e-48 4.17154e-48 4.51458e-48 4.84241e-48 5.15054e-48 5.43531e-48 5.69398e-48 5.92474e-48 6.12672e-48 6.29986e-48 6.44481e-48 6.5628e-48 6.65548e-48 6.72479e-48 6.77283e-48 6.80175e-48 6.81368e-48 6.81069e-48 6.79474e-48 6.76769e-48 6.73127e-48 6.6871e-48 6.63673e-48 6.58162e-48 6.52315e-48 6.46267e-48 6.40147e-48 6.34082e-48 6.28192e-48 6.22594e-48 6.17396e-48 6.127e-48 6.08596e-48 6.0516e-48 6.02451e-48 6.00506e-48 5.9934e-48 5.98939e-48 5.99259e-48 6.00227e-48 6.01741e-48 6.03669e-48 6.0586e-48 6.08147e-48 6.10357e-48 6.12319e-48 6.1388e-48 6.14907e-48 6.15305e-48 6.15016e-48 6.14029e-48 6.12376e-48 6.10127e-48 6.07389e-48 6.04291e-48 6.00975e-48 5.97583e-48 5.94247e-48 5.91076e-48 5.88152e-48 5.85528e-48 5.83221e-48 5.81224e-48 5.79502e-48 5.78008e-48 5.76689e-48 5.75492e-48 5.74377e-48 5.73318e-48 5.72315e-48 5.71388e-48 5.70583e-48 5.69966e-48 5.69621e-48 5.69641e-48 5.70126e-48 5.71174e-48 5.72872e-48 5.75294e-48 5.78492e-48 5.82494e-48 5.87296e-48 5.92865e-48 5.99125e-48 6.05965e-48 6.13227e-48 6.20707e-48 6.28153e-48 6.35262e-48 6.41685e-48 6.47027e-48 6.50861e-48 6.52735e-48 6.52195e-48 6.488e-48 6.42154e-48 6.31923e-48 6.17869e-48 5.99867e-48 5.77924e-48 5.52192e-48 5.22966e-48 4.90681e-48 4.55891e-48 4.19247e-48 3.81465e-48 3.43288e-48 3.05449e-48 2.68639e-48 2.33473e-48 2.00465e-48 1.70015e-48 1.42398e-48 1.17767e-48 9.61571e-49 7.75052e-49 6.16636e-49 4.84217e-49 3.75264e-49 2.8701e-49 2.16623e-49 1.61342e-49 1.18582e-49 8.60044e-50 6.15532e-50 4.34728e-50 3.02991e-50 2.08401e-50 1.41463e-50 9.47711e-51 6.26646e-51 4.0898e-51 2.63476e-51 1.67558e-51 1.05197e-51 6.52049e-52 3.99054e-52 2.4115e-52 1.43906e-52 8.4809e-53 4.93639e-53 2.83802e-53 1.61175e-53 9.04255e-54 5.01224e-54 2.74509e-54 1.4856e-54 7.94522e-55 4.19957e-55 2.19399e-55 1.13299e-55 5.78354e-56 2.91778e-56 1.45318e-56 7.10711e-57 3.33015e-57 1.31159e-57 0 
0 8.8378e-76 3.07005e-75 9.72366e-75 3.03139e-74 9.36718e-74 2.87082e-73 8.72646e-73 2.63078e-72 7.86538e-72 2.33196e-71 6.8559e-71 1.99859e-70 5.77663e-70 1.65535e-69 4.70269e-69 1.32439e-68 3.6972e-68 1.02304e-67 2.8057e-67 7.62603e-67 2.05416e-66 5.483e-66 1.45019e-65 3.80035e-65 9.86704e-65 2.53795e-64 6.46673e-64 1.63215e-63 4.08016e-63 1.0102e-62 2.47696e-62 6.01421e-62 1.44596e-61 3.44205e-61 8.11205e-61 1.89262e-60 4.37098e-60 9.99184e-60 2.26063e-59 5.06167e-59 1.12151e-58 2.45882e-58 5.33364e-58 1.14462e-57 2.42995e-57 5.10272e-57 1.05982e-56 2.17699e-56 4.42215e-56 8.88228e-56 1.76398e-55 3.46338e-55 6.72213e-55 1.28966e-54 2.44549e-54 4.5829e-54 8.4871e-54 1.55305e-53 2.80787e-53 5.01531e-53 8.84929e-53 1.54231e-52 2.65491e-52 4.51342e-52 7.57711e-52 1.25605e-51 2.0558e-51 3.32193e-51 5.29914e-51 8.34438e-51 1.29696e-50 1.98963e-50 3.01237e-50 4.501e-50 6.63672e-50 9.65659e-50 1.38645e-49 1.96417e-49 2.74565e-49 3.78701e-49 5.15384e-49 6.92081e-49 9.17032e-49 1.19903e-48 1.54711e-48 1.97009e-48 2.47608e-48 3.0719e-48 3.76245e-48 4.55014e-48 5.43438e-48 6.41117e-48 7.47294e-48 8.60858e-48 9.80369e-48 1.10411e-47 1.23016e-47 1.35648e-47 1.48101e-47 1.60177e-47 1.71696e-47 1.82498e-47 1.92459e-47 2.01483e-47 2.0951e-47 2.16514e-47 2.22495e-47 2.27482e-47 2.3152e-47 2.34672e-47 2.37009e-47 2.38605e-47 2.39539e-47 2.39886e-47 2.39719e-47 2.39107e-47 2.38115e-47 2.36802e-47 2.35225e-47 2.33437e-47 2.31487e-47 2.29425e-47 2.27296e-47 2.25144e-47 2.23014e-47 2.20946e-47 2.18983e-47 2.1716e-47 2.15514e-47 2.14076e-47 2.12873e-47 2.11925e-47 2.11245e-47 2.10838e-47 2.107e-47 2.10815e-47 2.11157e-47 2.1169e-47 2.1237e-47 2.13141e-47 2.13947e-47 2.14725e-47 2.15417e-47 2.15967e-47 2.1633e-47 2.16472e-47 2.16374e-47 2.1603e-47 2.15452e-47 2.14665e-47 2.13706e-47 2.12621e-47 2.1146e-47 2.10273e-47 2.09105e-47 2.07995e-47 2.06972e-47 2.06055e-47 2.05249e-47 2.04551e-47 2.03949e-47 2.03428e-47 2.02967e-47 2.02548e-47 2.02158e-47 2.01787e-47 2.01434e-47 2.01108e-47 2.00825e-47 2.00607e-47 2.00484e-47 2.0049e-47 2.0066e-47 2.01027e-47 2.01624e-47 2.02477e-47 2.03603e-47 2.05014e-47 2.06709e-47 2.08676e-47 2.1089e-47 2.13313e-47 2.1589e-47 2.18551e-47 2.21207e-47 2.23753e-47 2.26066e-47 2.28008e-47 2.29428e-47 2.30166e-47 2.30059e-47 2.28953e-47 2.26703e-47 2.2319e-47 2.18326e-47 2.12064e-47 2.04404e-47 1.95396e-47 1.85142e-47 1.73793e-47 1.61544e-47 1.48625e-47 1.35288e-47 1.21797e-47 1.08412e-47 9.53811e-48 8.29221e-48 7.122e-48 6.04182e-48 5.06162e-48 4.18695e-48 3.41927e-48 2.75643e-48 2.1933e-48 1.72245e-48 1.33497e-48 1.02104e-48 7.70642e-49 5.73964e-49 4.21828e-49 3.05916e-49 2.18921e-49 1.54597e-49 1.07733e-49 7.4087e-50 5.02807e-50 3.36778e-50 2.22633e-50 1.45265e-50 9.35588e-51 5.9482e-51 3.7333e-51 2.31333e-51 1.4153e-51 8.54981e-52 5.10033e-52 3.00473e-52 1.74829e-52 1.00475e-52 5.70392e-53 3.19887e-53 1.77242e-53 9.70324e-54 5.24913e-54 2.80617e-54 1.48263e-54 7.74255e-55 3.99665e-55 2.0393e-55 1.02839e-55 5.11972e-56 2.50293e-56 1.17237e-56 4.61618e-57 0 
0 2.7946e-75 9.70997e-75 3.07622e-74 9.59291e-74 2.96513e-73 9.09009e-73 2.76395e-72 8.33508e-72 2.49277e-71 7.39303e-71 2.17424e-70 6.34034e-70 1.8332e-69 5.25506e-69 1.49344e-68 4.20741e-68 1.17498e-67 3.25247e-67 8.92339e-67 2.42637e-66 6.53829e-66 1.74592e-65 4.61966e-65 1.21113e-64 3.14586e-64 8.09515e-64 2.06356e-63 5.21059e-63 1.30318e-62 3.22801e-62 7.91862e-62 1.92361e-61 4.62705e-61 1.10199e-60 2.59841e-60 6.06537e-60 1.40151e-59 3.20543e-59 7.25597e-59 1.62551e-58 3.60356e-58 7.90473e-58 1.71561e-57 3.68377e-57 7.82475e-57 1.64405e-56 3.41656e-56 7.02191e-56 1.42717e-55 2.86821e-55 5.69935e-55 1.11964e-54 2.17435e-54 4.17391e-54 7.91914e-54 1.48489e-53 2.75141e-53 5.03756e-53 9.11274e-53 1.62856e-52 2.87506e-52 5.01346e-52 8.63453e-52 1.46863e-51 2.46674e-51 4.09104e-51 6.69898e-51 1.08296e-50 1.72828e-50 2.72258e-50 4.23331e-50 6.4966e-50 9.83945e-50 1.47065e-49 2.1691e-49 3.15691e-49 4.53358e-49 6.42396e-49 8.98129e-49 1.23892e-48 1.68623e-48 2.26445e-48 3.00049e-48 3.92303e-48 5.06146e-48 6.44442e-48 8.09815e-48 1.00445e-47 1.22991e-47 1.48691e-47 1.77519e-47 2.09337e-47 2.43889e-47 2.80802e-47 3.196e-47 3.59713e-47 4.00511e-47 4.41325e-47 4.81483e-47 5.20341e-47 5.57315e-47 5.91902e-47 6.23698e-47 6.52412e-47 6.77863e-47 6.99978e-47 7.18778e-47 7.34367e-47 7.4691e-47 7.56617e-47 7.63728e-47 7.68494e-47 7.71168e-47 7.71999e-47 7.7122e-47 7.69053e-47 7.65702e-47 7.61357e-47 7.56194e-47 7.50381e-47 7.44072e-47 7.37419e-47 7.30565e-47 7.23652e-47 7.16815e-47 7.10186e-47 7.03893e-47 6.98057e-47 6.92788e-47 6.88187e-47 6.84339e-47 6.81308e-47 6.79138e-47 6.77844e-47 6.77409e-47 6.77786e-47 6.78893e-47 6.80614e-47 6.82801e-47 6.85286e-47 6.87879e-47 6.90385e-47 6.92613e-47 6.94388e-47 6.95563e-47 6.96029e-47 6.95722e-47 6.94628e-47 6.92783e-47 6.90268e-47 6.87204e-47 6.83735e-47 6.80022e-47 6.76225e-47 6.72492e-47 6.68947e-47 6.65681e-47 6.62752e-47 6.60181e-47 6.57956e-47 6.56039e-47 6.54377e-47 6.52907e-47 6.5157e-47 6.50321e-47 6.49132e-47 6.48001e-47 6.46953e-47 6.4604e-47 6.45337e-47 6.44939e-47 6.44954e-47 6.45495e-47 6.46674e-47 6.48591e-47 6.51333e-47 6.5496e-47 6.59508e-47 6.64979e-47 6.71336e-47 6.78503e-47 6.8636e-47 6.94734e-47 7.03404e-47 7.12088e-47 7.20452e-47 7.28101e-47 7.34591e-47 7.39434e-47 7.42112e-47 7.42101e-47 7.38887e-47 7.32e-47 7.21044e-47 7.05723e-47 6.85873e-47 6.61479e-47 6.32692e-47 5.99832e-47 5.63379e-47 5.23959e-47 4.82311e-47 4.39252e-47 3.95639e-47 3.52322e-47 3.10103e-47 2.69701e-47 2.31723e-47 1.96641e-47 1.64786e-47 1.36344e-47 1.1137e-47 8.97962e-48 7.1461e-48 5.61262e-48 4.3503e-48 3.32743e-48 2.51142e-48 1.87042e-48 1.37455e-48 9.96755e-49 7.13217e-49 5.03579e-49 3.50862e-49 2.41237e-49 1.63683e-49 1.09606e-49 7.24369e-50 4.725e-50 3.0422e-50 1.93349e-50 1.2131e-50 7.5141e-51 4.59535e-51 2.77494e-51 1.65468e-51 9.74399e-52 5.66701e-52 3.25539e-52 1.84723e-52 1.03548e-52 5.73465e-53 3.13798e-53 1.69672e-53 9.06617e-54 4.78774e-54 2.499e-54 1.28932e-54 6.57553e-55 3.3143e-55 1.64917e-55 8.05863e-56 3.77303e-56 1.48516e-56 0 
0 8.69749e-75 3.02269e-74 9.57889e-74 2.98797e-73 9.23847e-73 2.83308e-72 8.61705e-72 2.59943e-71 7.77666e-71 2.30717e-70 6.78758e-70 1.98003e-69 5.72698e-69 1.6423e-68 4.669e-68 1.31588e-67 3.67622e-67 1.01801e-66 2.79413e-66 7.60065e-66 2.04899e-65 5.47376e-65 1.44897e-64 3.80043e-64 9.87587e-64 2.54249e-63 6.48415e-63 1.63805e-62 4.09875e-62 1.01577e-61 2.49301e-61 6.05912e-61 1.4582e-60 3.4747e-60 8.19734e-60 1.91449e-59 4.42613e-59 1.01286e-58 2.29403e-58 5.14202e-58 1.14057e-57 2.50335e-57 5.43629e-57 1.16795e-56 2.48231e-56 5.21859e-56 1.08513e-55 2.23155e-55 4.5382e-55 9.12595e-55 1.81447e-54 3.56666e-54 6.93063e-54 1.3312e-53 2.52718e-53 4.74144e-53 8.79075e-53 1.61044e-52 2.9149e-52 5.21226e-52 9.20688e-52 1.60636e-51 2.7681e-51 4.71072e-51 7.91632e-51 1.31357e-50 2.15199e-50 3.48057e-50 5.5571e-50 8.75795e-50 1.36233e-49 2.09149e-49 3.16882e-49 4.73786e-49 6.99015e-49 1.01763e-48 1.46175e-48 2.0717e-48 2.89693e-48 3.99669e-48 5.4402e-48 7.30607e-48 9.68093e-48 1.2657e-47 1.63285e-47 2.07873e-47 2.61167e-47 3.23862e-47 3.9644e-47 4.79115e-47 5.71777e-47 6.73953e-47 7.84791e-47 9.03065e-47 1.02721e-46 1.15537e-46 1.28549e-46 1.41542e-46 1.54299e-46 1.66615e-46 1.78303e-46 1.89205e-46 1.99195e-46 2.08185e-46 2.16121e-46 2.22985e-46 2.28791e-46 2.33575e-46 2.37395e-46 2.40323e-46 2.42437e-46 2.4382e-46 2.44555e-46 2.4472e-46 2.44391e-46 2.43636e-46 2.4252e-46 2.41102e-46 2.39435e-46 2.37572e-46 2.3556e-46 2.33445e-46 2.31272e-46 2.29084e-46 2.26922e-46 2.24829e-46 2.22843e-46 2.21002e-46 2.19342e-46 2.17892e-46 2.1668e-46 2.15726e-46 2.15044e-46 2.14639e-46 2.14504e-46 2.14627e-46 2.14979e-46 2.15526e-46 2.1622e-46 2.17008e-46 2.1783e-46 2.18625e-46 2.19332e-46 2.19896e-46 2.2027e-46 2.2042e-46 2.20327e-46 2.19984e-46 2.19405e-46 2.18613e-46 2.17649e-46 2.16557e-46 2.15387e-46 2.14192e-46 2.13017e-46 2.11902e-46 2.10875e-46 2.09954e-46 2.09147e-46 2.08448e-46 2.07847e-46 2.07325e-46 2.06864e-46 2.06443e-46 2.0605e-46 2.05675e-46 2.05318e-46 2.04986e-46 2.04696e-46 2.04472e-46 2.04345e-46 2.04349e-46 2.04519e-46 2.04891e-46 2.05498e-46 2.06367e-46 2.07517e-46 2.08962e-46 2.10702e-46 2.12726e-46 2.15012e-46 2.17523e-46 2.20206e-46 2.2299e-46 2.2579e-46 2.285e-46 2.30994e-46 2.33134e-46 2.34763e-46 2.35717e-46 2.35826e-46 2.34926e-46 2.32865e-46 2.29511e-46 2.24768e-46 2.18579e-46 2.10935e-46 2.01879e-46 1.91511e-46 1.79981e-46 1.67485e-46 1.54259e-46 1.40563e-46 1.26671e-46 1.12856e-46 9.93773e-47 8.64658e-47 7.43181e-47 6.30882e-47 5.28841e-47 4.3768e-47 3.57589e-47 2.88375e-47 2.29527e-47 1.80293e-47 1.39754e-47 1.06898e-47 8.06829e-48 6.00879e-48 4.41552e-48 3.20159e-48 2.29057e-48 1.61704e-48 1.12644e-48 7.74318e-49 5.25259e-49 3.51632e-49 2.3232e-49 1.51493e-49 9.7506e-50 6.19485e-50 3.88527e-50 2.40565e-50 1.47061e-50 8.87662e-51 5.29077e-51 3.11419e-51 1.81035e-51 1.03946e-51 5.8954e-52 3.30311e-52 1.82839e-52 9.99986e-53 5.40421e-53 2.88618e-53 1.52337e-53 7.94718e-54 4.09809e-54 2.08892e-54 1.05234e-54 5.23364e-55 2.55613e-55 1.19623e-55 4.70711e-56 0 
0 2.68296e-74 9.32649e-74 2.95641e-73 9.22479e-73 2.85309e-72 8.75209e-72 2.66288e-71 8.03555e-71 2.40479e-70 7.13699e-70 2.1004e-69 6.12937e-69 1.77349e-68 5.08767e-68 1.44696e-67 4.07961e-67 1.14019e-66 3.15869e-66 8.67318e-66 2.3603e-65 6.36564e-65 1.70129e-64 4.50553e-64 1.18227e-63 3.07369e-63 7.91675e-63 2.01999e-62 5.10545e-62 1.27812e-61 3.16908e-61 7.78187e-61 1.89231e-60 4.55648e-60 1.08632e-59 2.56419e-59 5.99193e-59 1.38605e-58 3.17357e-58 7.19187e-58 1.61297e-57 3.57983e-57 7.86172e-57 1.70826e-56 3.67228e-56 7.80954e-56 1.6428e-55 3.41805e-55 7.03341e-55 1.43123e-54 2.87986e-54 5.72942e-54 1.12691e-53 2.19113e-53 4.21121e-53 7.99954e-53 1.50177e-52 2.78601e-52 5.10695e-52 9.24913e-52 1.65486e-51 2.92482e-51 5.10599e-51 8.80363e-51 1.49902e-50 2.52044e-50 4.1844e-50 6.85869e-50 1.10985e-49 1.77283e-49 2.79523e-49 4.34993e-49 6.68085e-49 1.0126e-48 1.51452e-48 2.2352e-48 3.25496e-48 4.67671e-48 6.62962e-48 9.27211e-48 1.27939e-47 1.74165e-47 2.33913e-47 3.09951e-47 4.0522e-47 5.22722e-47 6.65368e-47 8.35798e-47 1.03618e-46 1.26802e-46 1.53191e-46 1.82744e-46 2.15299e-46 2.50575e-46 2.88171e-46 3.27576e-46 3.68192e-46 4.09357e-46 4.50379e-46 4.90567e-46 5.29268e-46 5.65894e-46 5.99952e-46 6.31054e-46 6.58932e-46 6.83436e-46 7.04525e-46 7.22257e-46 7.36769e-46 7.48258e-46 7.56962e-46 7.63142e-46 7.67067e-46 7.69e-46 7.69195e-46 7.67885e-46 7.65288e-46 7.61601e-46 7.57006e-46 7.51668e-46 7.45744e-46 7.39378e-46 7.3271e-46 7.25877e-46 7.19008e-46 7.12234e-46 7.05679e-46 6.99466e-46 6.93709e-46 6.88519e-46 6.8399e-46 6.80206e-46 6.77231e-46 6.75106e-46 6.73846e-46 6.73436e-46 6.73829e-46 6.74942e-46 6.76663e-46 6.78846e-46 6.81324e-46 6.83909e-46 6.86408e-46 6.88633e-46 6.9041e-46 6.91593e-46 6.92074e-46 6.9179e-46 6.90728e-46 6.88923e-46 6.86455e-46 6.83445e-46 6.80035e-46 6.76386e-46 6.72655e-46 6.68989e-46 6.6551e-46 6.62309e-46 6.59441e-46 6.56927e-46 6.54753e-46 6.52882e-46 6.51259e-46 6.49823e-46 6.48514e-46 6.47286e-46 6.46113e-46 6.44993e-46 6.43952e-46 6.4304e-46 6.42335e-46 6.41932e-46 6.41938e-46 6.42468e-46 6.43634e-46 6.45538e-46 6.48269e-46 6.5189e-46 6.56441e-46 6.61928e-46 6.68323e-46 6.75556e-46 6.83516e-46 6.9204e-46 7.00915e-46 7.09872e-46 7.18581e-46 7.26655e-46 7.33654e-46 7.39086e-46 7.42431e-46 7.43152e-46 7.40719e-46 7.34643e-46 7.24502e-46 7.09973e-46 6.90864e-46 6.67133e-46 6.38904e-46 6.06478e-46 5.7032e-46 5.31046e-46 4.89396e-46 4.46196e-46 4.02312e-46 3.58616e-46 3.15931e-46 2.75002e-46 2.36459e-46 2.008e-46 1.68374e-46 1.39388e-46 1.13908e-46 9.18783e-47 7.31402e-47 5.74581e-47 4.45421e-47 3.40717e-47 2.57161e-47 1.91512e-47 1.40722e-47 1.02024e-47 7.29827e-48 5.15139e-48 3.58779e-48 2.46571e-48 1.67219e-48 1.11913e-48 7.39176e-49 4.8185e-49 3.10027e-49 1.96897e-49 1.23442e-49 7.64007e-50 4.66851e-50 2.81669e-50 1.67808e-50 9.87274e-51 5.73651e-51 3.29215e-51 1.86626e-51 1.04511e-51 5.78209e-52 3.16069e-52 1.70723e-52 9.11281e-53 4.8073e-53 2.50655e-53 1.29185e-53 6.58137e-54 3.31372e-54 1.64714e-54 8.04053e-55 3.76112e-55 1.47947e-55 0 
0 8.20833e-74 2.85408e-73 9.04982e-73 2.82466e-72 8.73901e-72 2.68164e-71 8.16177e-71 2.46374e-70 7.37577e-70 2.18977e-69 6.44678e-69 1.88199e-68 5.44745e-68 1.56333e-67 4.44793e-67 1.25457e-66 3.50776e-66 9.72163e-66 2.67052e-65 7.27061e-65 1.96172e-64 5.24528e-64 1.38974e-63 3.64843e-63 9.48977e-63 2.44541e-62 6.24262e-62 1.57859e-61 3.95391e-61 9.80868e-61 2.40984e-60 5.86311e-60 1.41253e-59 3.36949e-59 7.95783e-59 1.86061e-58 4.30639e-58 9.8658e-58 2.23707e-57 5.02017e-57 1.11484e-56 2.44979e-56 5.32634e-56 1.14571e-55 2.438e-55 5.13171e-55 1.06838e-54 2.19981e-54 4.47923e-54 9.0186e-54 1.79537e-53 3.53353e-53 6.87484e-53 1.32214e-52 2.5131e-52 4.72086e-52 8.76339e-52 1.60739e-51 2.91291e-51 5.21495e-51 9.22254e-51 1.61097e-50 2.77922e-50 4.73494e-50 7.96573e-50 1.32318e-49 2.16997e-49 3.51314e-49 5.61449e-49 8.85652e-49 1.37886e-48 2.11861e-48 3.21239e-48 4.80642e-48 7.09592e-48 1.03364e-47 1.48552e-47 2.10633e-47 2.94644e-47 4.06619e-47 5.53595e-47 7.43555e-47 9.85277e-47 1.28808e-46 1.66144e-46 2.11454e-46 2.65566e-46 3.29156e-46 4.02678e-46 4.86305e-46 5.79873e-46 6.82847e-46 7.94299e-46 9.12925e-46 1.03708e-45 1.16483e-45 1.29408e-45 1.4226e-45 1.54821e-45 1.66886e-45 1.7827e-45 1.88821e-45 1.98421e-45 2.06989e-45 2.14484e-45 2.20899e-45 2.26258e-45 2.3061e-45 2.34022e-45 2.36572e-45 2.38346e-45 2.3943e-45 2.39909e-45 2.39863e-45 2.39364e-45 2.3848e-45 2.37272e-45 2.35794e-45 2.34096e-45 2.32226e-45 2.30227e-45 2.28141e-45 2.26009e-45 2.2387e-45 2.21763e-45 2.19727e-45 2.17798e-45 2.16013e-45 2.14404e-45 2.13e-45 2.11828e-45 2.10908e-45 2.10251e-45 2.09863e-45 2.09739e-45 2.09864e-45 2.10213e-45 2.1075e-45 2.11432e-45 2.12204e-45 2.13011e-45 2.13791e-45 2.14485e-45 2.1504e-45 2.15411e-45 2.15564e-45 2.15479e-45 2.15152e-45 2.14594e-45 2.13831e-45 2.12899e-45 2.11843e-45 2.10713e-45 2.09558e-45 2.08424e-45 2.07347e-45 2.06357e-45 2.05471e-45 2.04695e-45 2.04024e-45 2.03447e-45 2.02946e-45 2.02502e-45 2.02098e-45 2.01718e-45 2.01354e-45 2.01006e-45 2.00681e-45 2.00397e-45 2.00176e-45 2.0005e-45 2.0005e-45 2.00214e-45 2.00576e-45 2.0117e-45 2.02021e-45 2.03152e-45 2.04574e-45 2.06292e-45 2.08297e-45 2.10568e-45 2.13072e-45 2.15761e-45 2.18569e-45 2.21413e-45 2.24193e-45 2.26787e-45 2.2906e-45 2.30857e-45 2.32014e-45 2.32362e-45 2.31734e-45 2.29972e-45 2.26941e-45 2.22536e-45 2.16691e-45 2.09388e-45 2.00663e-45 1.90606e-45 1.79359e-45 1.67113e-45 1.54101e-45 1.40579e-45 1.26823e-45 1.13107e-45 9.96926e-46 8.68159e-46 7.46785e-46 6.34396e-46 5.32125e-46 4.40643e-46 3.60181e-46 2.90579e-46 2.31354e-46 1.8177e-46 1.40921e-46 1.078e-46 8.13634e-47 6.05905e-47 4.45184e-47 3.22725e-47 2.30829e-47 1.629e-47 1.13432e-47 7.79381e-48 5.28423e-48 3.53551e-48 2.33445e-48 1.52126e-48 9.78441e-49 6.21169e-49 3.89277e-49 2.40831e-49 1.47097e-49 8.87094e-50 5.28254e-50 3.10641e-50 1.80408e-50 1.03483e-50 5.86326e-51 3.28172e-51 1.81467e-51 9.9143e-52 5.35226e-52 2.85536e-52 1.50546e-52 7.84523e-53 4.04109e-53 2.05761e-53 1.03543e-53 5.14395e-54 2.50969e-54 1.1734e-54 4.61404e-55 0 
0 2.49071e-73 8.66249e-73 2.74756e-72 8.57848e-72 2.6549e-71 8.14947e-71 2.48119e-70 7.49241e-70 2.24382e-69 6.66401e-69 1.96264e-68 5.73163e-68 1.65967e-67 4.76485e-67 1.35623e-66 3.82688e-66 1.07044e-65 2.96795e-65 8.15646e-65 2.22162e-64 5.99698e-64 1.60421e-63 4.25237e-63 1.11689e-62 2.9065e-62 7.49344e-62 1.91387e-61 4.84213e-61 1.21344e-60 3.01184e-60 7.4036e-60 1.80226e-59 4.34438e-59 1.0369e-58 2.45027e-58 5.73225e-58 1.3275e-57 3.04307e-57 6.90427e-57 1.55031e-56 3.44492e-56 7.57465e-56 1.64791e-55 3.54693e-55 7.55239e-55 1.59071e-54 3.31385e-54 6.82768e-54 1.39114e-53 2.80279e-53 5.58326e-53 1.09958e-52 2.14074e-52 4.11965e-52 7.83567e-52 1.47289e-51 2.7359e-51 5.02142e-51 9.1056e-51 1.63119e-50 2.88651e-50 5.04517e-50 8.70904e-50 1.48463e-49 2.49907e-49 4.15348e-49 6.81528e-49 1.10396e-48 1.76517e-48 2.78579e-48 4.33916e-48 6.66998e-48 1.01176e-47 1.51438e-47 2.23651e-47 3.25886e-47 4.68486e-47 6.64428e-47 9.29624e-47 1.28311e-46 1.74711e-46 2.34676e-46 3.10973e-46 4.06531e-46 5.24325e-46 6.67225e-46 8.37808e-46 1.03816e-45 1.26965e-45 1.53276e-45 1.82688e-45 2.15024e-45 2.4998e-45 2.87136e-45 3.25963e-45 3.65849e-45 4.06119e-45 4.46076e-45 4.85032e-45 5.22344e-45 5.57441e-45 5.89853e-45 6.19225e-45 6.45321e-45 6.68029e-45 6.87348e-45 7.03369e-45 7.16264e-45 7.26258e-45 7.3361e-45 7.38597e-45 7.41496e-45 7.42574e-45 7.4208e-45 7.40243e-45 7.37268e-45 7.33337e-45 7.28618e-45 7.23259e-45 7.17399e-45 7.11169e-45 7.04692e-45 6.98089e-45 6.9148e-45 6.8498e-45 6.78704e-45 6.72765e-45 6.67271e-45 6.62321e-45 6.58008e-45 6.54407e-45 6.51581e-45 6.49568e-45 6.48382e-45 6.48009e-45 6.48404e-45 6.49489e-45 6.51156e-45 6.53266e-45 6.55657e-45 6.58152e-45 6.60566e-45 6.62717e-45 6.64439e-45 6.65592e-45 6.66073e-45 6.65822e-45 6.64824e-45 6.63115e-45 6.60773e-45 6.5791e-45 6.54668e-45 6.51197e-45 6.47649e-45 6.44166e-45 6.40863e-45 6.37827e-45 6.3511e-45 6.32732e-45 6.30678e-45 6.28912e-45 6.27379e-45 6.26021e-45 6.24781e-45 6.23613e-45 6.22494e-45 6.2142e-45 6.20418e-45 6.19538e-45 6.18854e-45 6.18458e-45 6.18456e-45 6.18959e-45 6.20076e-45 6.21909e-45 6.24543e-45 6.28047e-45 6.3246e-45 6.37795e-45 6.44032e-45 6.51111e-45 6.58933e-45 6.67352e-45 6.7617e-45 6.85138e-45 6.93944e-45 7.02221e-45 7.09544e-45 7.15438e-45 7.19392e-45 7.20874e-45 7.19355e-45 7.1434e-45 7.05393e-45 6.92173e-45 6.74462e-45 6.5219e-45 6.25452e-45 5.94514e-45 5.59813e-45 5.21936e-45 4.81599e-45 4.39608e-45 3.96818e-45 3.54091e-45 3.12251e-45 2.72045e-45 2.34109e-45 1.98951e-45 1.66934e-45 1.38275e-45 1.13054e-45 9.12259e-46 7.26441e-46 5.7082e-46 4.42576e-46 3.38568e-46 2.5554e-46 1.90291e-46 1.39804e-46 1.01337e-46 7.24705e-47 5.11346e-47 3.55991e-47 2.4454e-47 1.65754e-47 1.10868e-47 7.31812e-48 4.76725e-48 3.06507e-48 1.94512e-48 1.21848e-48 7.53502e-49 4.60026e-49 2.77298e-49 1.65048e-49 9.70094e-50 5.63108e-50 3.22836e-50 1.8282e-50 1.02271e-50 5.65213e-51 3.08631e-51 1.66522e-51 8.87876e-52 4.67861e-52 2.43672e-52 1.25444e-52 6.38361e-53 3.21053e-53 1.59407e-53 7.77311e-54 3.63251e-54 1.42786e-54 0 
0 7.49541e-73 2.60752e-72 8.27304e-72 2.58386e-71 7.99925e-71 2.45628e-70 7.48101e-70 2.25983e-69 6.77015e-69 2.01144e-68 5.92619e-68 1.73133e-67 5.01529e-67 1.44045e-66 4.10165e-66 1.15785e-65 3.24008e-65 8.98751e-65 2.47103e-64 6.73351e-64 1.81847e-63 4.86675e-63 1.29067e-62 3.39162e-62 8.83044e-62 2.27779e-61 5.82061e-61 1.47339e-60 3.69431e-60 9.17445e-60 2.25646e-59 5.496e-59 1.32557e-58 3.16563e-58 7.48497e-58 1.75209e-57 4.06001e-57 9.3125e-57 2.11416e-56 4.75017e-56 1.05619e-55 2.32381e-55 5.05881e-55 1.08955e-54 2.32147e-54 4.89275e-54 1.01996e-53 2.10286e-53 4.28744e-53 8.64384e-53 1.72304e-52 3.39567e-52 6.61538e-52 1.27392e-51 2.42465e-51 4.56072e-51 8.4772e-51 1.55692e-50 2.82508e-50 5.06416e-50 8.96715e-50 1.5683e-49 2.7089e-49 4.62065e-49 7.78252e-49 1.29421e-48 2.12481e-48 3.4437e-48 5.50915e-48 8.69886e-48 1.35558e-47 2.08468e-47 3.16354e-47 4.73697e-47 6.99831e-47 1.02007e-46 1.46684e-46 2.08086e-46 2.91201e-46 4.01998e-46 5.47432e-46 7.35381e-46 9.74488e-46 1.2739e-45 1.64288e-45 2.09035e-45 2.62425e-45 3.25098e-45 3.97464e-45 4.79647e-45 5.71434e-45 6.72234e-45 7.81071e-45 8.96595e-45 1.01712e-44 1.14071e-44 1.26523e-44 1.38851e-44 1.50837e-44 1.62284e-44 1.73015e-44 1.82888e-44 1.91795e-44 1.9967e-44 2.06484e-44 2.1224e-44 2.16976e-44 2.20749e-44 2.23634e-44 2.25716e-44 2.27084e-44 2.27826e-44 2.28026e-44 2.27761e-44 2.27102e-44 2.2611e-44 2.24842e-44 2.23346e-44 2.21666e-44 2.19843e-44 2.17916e-44 2.1592e-44 2.13892e-44 2.11865e-44 2.09876e-44 2.07957e-44 2.06143e-44 2.04466e-44 2.02956e-44 2.0164e-44 2.00543e-44 1.99683e-44 1.99071e-44 1.98711e-44 1.98601e-44 1.98724e-44 1.99059e-44 1.99571e-44 2.00219e-44 2.00954e-44 2.0172e-44 2.02461e-44 2.03122e-44 2.03651e-44 2.04007e-44 2.04157e-44 2.04084e-44 2.03782e-44 2.03262e-44 2.02549e-44 2.01677e-44 2.00689e-44 1.99632e-44 1.98551e-44 1.97491e-44 1.96485e-44 1.95561e-44 1.94736e-44 1.94013e-44 1.93389e-44 1.92853e-44 1.92388e-44 1.91976e-44 1.91599e-44 1.91243e-44 1.90901e-44 1.90573e-44 1.90266e-44 1.89995e-44 1.89785e-44 1.89662e-44 1.89661e-44 1.89814e-44 1.90156e-44 1.90718e-44 1.91527e-44 1.92604e-44 1.93962e-44 1.95607e-44 1.97532e-44 1.99722e-44 2.02146e-44 2.04763e-44 2.07512e-44 2.10319e-44 2.13089e-44 2.1571e-44 2.18052e-44 2.1997e-44 2.21304e-44 2.2189e-44 2.21562e-44 2.20163e-44 2.17557e-44 2.13632e-44 2.08317e-44 2.01586e-44 1.93462e-44 1.84025e-44 1.73406e-44 1.61784e-44 1.49379e-44 1.3644e-44 1.23232e-44 1.10024e-44 9.70737e-45 8.46142e-45 7.28465e-45 6.19306e-45 5.1982e-45 4.30707e-45 3.52236e-45 2.84288e-45 2.26419e-45 1.77937e-45 1.37971e-45 1.05552e-45 7.96668e-46 5.93225e-46 4.35801e-46 3.15853e-46 2.25848e-46 1.59327e-46 1.10897e-46 7.61595e-47 5.16084e-47 3.45089e-47 2.27709e-47 1.48284e-47 9.5302e-48 6.04552e-48 3.78548e-48 2.33989e-48 1.42789e-48 8.60304e-49 5.11803e-49 3.00667e-49 1.74437e-49 9.99536e-50 5.65725e-50 3.16298e-50 1.74708e-50 9.53444e-51 5.14139e-51 2.73975e-51 1.44286e-51 7.51032e-52 3.86411e-52 1.96522e-52 9.87795e-53 4.9017e-53 2.38886e-53 1.11579e-53 4.38431e-54 0 
0 2.23692e-72 7.78388e-72 2.47042e-71 7.71821e-71 2.39026e-70 7.34216e-70 2.23697e-69 6.75976e-69 2.02589e-68 6.02127e-68 1.7747e-67 5.18681e-67 1.50311e-66 4.31887e-66 1.23031e-65 3.47452e-65 9.72718e-65 2.69938e-64 7.42505e-64 2.02425e-63 5.46932e-63 1.46446e-62 3.88568e-62 1.02158e-61 2.66116e-61 6.86792e-61 1.75594e-60 4.44726e-60 1.11569e-59 2.77224e-59 6.82219e-59 1.66261e-58 4.01233e-58 9.58763e-58 2.2683e-57 5.31288e-57 1.23188e-56 2.82732e-56 6.42275e-56 1.444e-55 3.21277e-55 7.07329e-55 1.54083e-54 3.3208e-54 7.08022e-54 1.49324e-53 3.11497e-53 6.42654e-53 1.31118e-52 2.64527e-52 5.27666e-52 1.04061e-51 2.0287e-51 3.90937e-51 7.44583e-51 1.40151e-50 2.60682e-50 4.79092e-50 8.69915e-50 1.56043e-49 2.76487e-49 4.83874e-49 8.36319e-49 1.42743e-48 2.40567e-48 4.00295e-48 6.57575e-48 1.06633e-47 1.70681e-47 2.69642e-47 4.204e-47 6.46812e-47 9.81979e-47 1.47097e-46 2.174e-46 3.16986e-46 4.55959e-46 6.46992e-46 9.05615e-46 1.2504e-45 1.70299e-45 2.28786e-45 3.03183e-45 3.96326e-45 5.11081e-45 6.50193e-45 8.16101e-45 1.01074e-44 1.23533e-44 1.49018e-44 1.77454e-44 2.08648e-44 2.42286e-44 2.7794e-44 3.15075e-44 3.53082e-44 3.91294e-44 4.29029e-44 4.65621e-44 5.00454e-44 5.32994e-44 5.62807e-44 5.8958e-44 6.1312e-44 6.33357e-44 6.50327e-44 6.64158e-44 6.75047e-44 6.83243e-44 6.8902e-44 6.9266e-44 6.94444e-44 6.94631e-44 6.93462e-44 6.91149e-44 6.87879e-44 6.83818e-44 6.79109e-44 6.73882e-44 6.68255e-44 6.62338e-44 6.56236e-44 6.50052e-44 6.43888e-44 6.37846e-44 6.32026e-44 6.2653e-44 6.21451e-44 6.16882e-44 6.12904e-44 6.09588e-44 6.06989e-44 6.05144e-44 6.04064e-44 6.03737e-44 6.04122e-44 6.05146e-44 6.06709e-44 6.08683e-44 6.10919e-44 6.13252e-44 6.15509e-44 6.17523e-44 6.1914e-44 6.20229e-44 6.20694e-44 6.2048e-44 6.19574e-44 6.18009e-44 6.15856e-44 6.13222e-44 6.10237e-44 6.07041e-44 6.03776e-44 6.00572e-44 5.97537e-44 5.9475e-44 5.9226e-44 5.90082e-44 5.88204e-44 5.86591e-44 5.85191e-44 5.83949e-44 5.82811e-44 5.81737e-44 5.80702e-44 5.79706e-44 5.78773e-44 5.7795e-44 5.77307e-44 5.76931e-44 5.76922e-44 5.77385e-44 5.78422e-44 5.80132e-44 5.82596e-44 5.85882e-44 5.90031e-44 5.95062e-44 6.00962e-44 6.07683e-44 6.15142e-44 6.23212e-44 6.3172e-44 6.4044e-44 6.49089e-44 6.5733e-44 6.64766e-44 6.70952e-44 6.75402e-44 6.77605e-44 6.77049e-44 6.73244e-44 6.65756e-44 6.54234e-44 6.38443e-44 6.18285e-44 5.93821e-44 5.65278e-44 5.33049e-44 4.97676e-44 4.59828e-44 4.20271e-44 3.7982e-44 3.39307e-44 2.99527e-44 2.6121e-44 2.24983e-44 1.91346e-44 1.60665e-44 1.33163e-44 1.0893e-44 8.79358e-45 7.00479e-45 5.50558e-45 4.26936e-45 3.26629e-45 2.46529e-45 1.83566e-45 1.34842e-45 9.77174e-46 6.98611e-46 4.92751e-46 3.42896e-46 2.35427e-46 1.59488e-46 1.06611e-46 7.03242e-47 4.57784e-47 2.94103e-47 1.86488e-47 1.16721e-47 7.21155e-48 4.39868e-48 2.64891e-48 1.57507e-48 9.24819e-49 5.36263e-49 3.07115e-49 1.73727e-49 9.70764e-50 5.35898e-50 2.92288e-50 1.57522e-50 8.3891e-51 4.4154e-51 2.29692e-51 1.18107e-51 6.00309e-52 3.01557e-52 1.49552e-52 7.28427e-53 3.4006e-53 1.33569e-53 0 