# vtk DataFile Version 3.0
Gray-Scott Simulation Output
ASCII
DATASET STRUCTURED_POINTS
DIMENSIONS 256 256 1
SPACING 1.0 1.0 1.0
ORIGIN 0 0 0
POINT_DATA 65536
SCALARS u double
LOOKUP_TABLE default
0 0 0 0 0 0 0 0 0 0 0 0 0 0 0 0 0 0 0 0 0 0 0 0 0 0 0 0 0 0 0 0 0 0 0 0 0 0 0 0 0 0 0 0 0 0 0 0 0 0 0 0 0 0 0 0 0 0 0 0 0 0 0 0 0 0 0 0 0 0 0 0 0 0 0 0 0 0 0 0 0 0 0 0 0 0 0 0 0 0 0 0 0 0 0 0 0 0 0 0 0 0 0 0 0 0 0 0 0 0 0 0 0 0 0 0 0 0 0 0 0 0 0 0 0 0 0 0 0 0 0 0 0 0 0 0 0 0 0 0 0 0 0 0 0 0 0 0 0 0 0 0 0 0 0 0 0 0 0 0 0 0 0 0 0 0 0 0 0 0 0 0 0 0 0 0 0 0 0 0 0 0 0 0 0 0 0 0 0 0 0 0 0 0 0 0 0 0 0 0 0 0 0 0 0 0 0 0 0 0 0 0 0 0 0 0 0 0 0 0 0 0 0 0 0 0 0 0 0 0 0 0 0 0 0 0 0 0 0 0 0 0 0 0 0 0 0 0 0 0 0 0 0 0 0 0 
0 9.12614e-136 9.3624e-135 9.41866e-134 9.37637e-133 9.23673e-132 9.0032e-131 8.68213e-130 8.2825e-129 7.81549e-128 7.29397e-127 6.73188e-126 6.14363e-125 5.54344e-124 4.9448e-123 4.35995e-122 3.79947e-121 3.27206e-120 2.78432e-119 2.34078e-118 1.94396e-117 1.59455e-116 1.29169e-115 1.03319e-114 8.15905e-114 6.36028e-113 4.89351e-112 3.7154e-111 2.78331e-110 2.05692e-109 1.49934e-108 1.07779e-107 7.63905e-107 5.33755e-106 3.67586e-105 2.49464e-104 1.66803e-103 1.09865e-102 7.12661e-102 4.55181e-101 2.86199e-100 1.77107e-99 1.07843e-98 6.45991e-98 3.80573e-97 2.20454e-96 1.25531e-95 7.02468e-95 3.86208e-94 2.08552e-93 1.10581e-92 5.75555e-92 2.93969e-91 1.47294e-90 7.23762e-90 3.48646e-89 1.64589e-88 7.61177e-88 3.44729e-87 1.52831e-86 6.62993e-86 2.81316e-85 1.16703e-84 4.73128e-84 1.87365e-83 7.24448e-83 2.73352e-82 1.00604e-81 3.60958e-81 1.26188e-80 4.29589e-80 1.42336e-79 4.5872e-79 1.43709e-78 4.37369e-78 1.2923e-77 3.70455e-77 1.02961e-76 2.77247e-76 7.22791e-76 1.82303e-75 4.4452e-75 1.04709e-74 2.38096e-74 5.2225e-74 1.10421e-73 2.24887e-73 4.40897e-73 8.3158e-73 1.50811e-72 2.62862e-72 4.402e-72 7.08149e-72 1.09436e-71 1.62505e-71 2.31996e-71 3.18707e-71 4.21853e-71 5.38946e-71 6.66054e-71 7.98405e-71 9.31172e-71 1.06021e-70 1.18247e-70 1.2961e-70 1.4001e-70 1.49391e-70 1.57706e-70 1.64895e-70 1.70894e-70 1.75643e-70 1.79107e-70 1.8128e-70 1.82198e-70 1.81939e-70 1.80638e-70 1.78489e-70 1.75736e-70 1.72645e-70 1.69457e-70 1.66334e-70 1.63329e-70 1.60376e-70 1.57341e-70 1.54085e-70 1.50541e-70 1.46762e-70 1.42922e-70 1.39267e-70 1.36033e-70 1.33374e-70 1.31314e-70 1.29758e-70 1.28552e-70 1.27566e-70 1.26773e-70 1.26281e-70 1.26323e-70 1.27187e-70 1.2912e-70 1.32238e-70 1.36462e-70 1.41507e-70 1.46904e-70 1.5207e-70 1.56385e-70 1.5928e-70 1.60324e-70 1.59291e-70 1.56205e-70 1.51357e-70 1.45278e-70 1.38663e-70 1.3227e-70 1.26788e-70 1.2272e-70 1.20301e-70 1.19479e-70 1.19959e-70 1.21296e-70 1.23018e-70 1.24725e-70 1.2615e-70 1.27165e-70 1.27743e-70 1.27909e-70 1.2769e-70 1.27096e-70 1.26126e-70 1.24791e-70 1.23137e-70 1.2127e-70 1.19364e-70 1.17655e-70 1.16415e-70 1.15905e-70 1.16316e-70 1.17716e-70 1.20022e-70 1.23009e-70 1.26372e-70 1.29815e-70 1.33142e-70 1.3632e-70 1.39479e-70 1.42862e-70 1.46729e-70 1.51254e-70 1.56446e-70 1.62109e-70 1.67839e-70 1.73064e-70 1.77098e-70 1.79214e-70 1.78732e-70 1.75113e-70 1.68047e-70 1.57525e-70 1.43874e-70 1.2774e-70 1.10021e-70 9.17495e-71 7.39581e-71 5.75422e-71 4.31587e-71 3.11741e-71 2.16683e-71 1.4485e-71 9.30929e-72 5.75112e-72 3.41529e-72 1.94989e-72 1.07059e-72 5.65505e-73 2.87514e-73 1.40776e-73 6.64213e-74 3.02186e-74 1.32655e-74 5.62281e-75 2.30288e-75 9.11977e-76 3.49462e-76 1.29665e-76 4.66181e-77 1.62514e-77 5.49698e-78 1.80525e-78 5.75979e-79 1.7865e-79 5.38998e-80 1.58276e-80 4.5262e-81 1.2612e-81 3.42604e-82 9.07801e-83 2.34743e-83 5.92665e-84 1.46165e-84 3.52285e-85 8.3014e-86 1.91337e-86 4.31535e-87 9.52743e-88 2.05989e-88 4.36299e-89 9.05635e-90 1.8429e-90 3.67772e-91 7.19986e-92 1.38318e-92 2.60841e-93 4.82984e-94 8.77633e-95 1.52206e-95 0 
0 9.35627e-135 9.59502e-134 9.64915e-133 9.60232e-132 9.45587e-131 9.21346e-130 8.88168e-129 8.46982e-128 7.98938e-127 7.45359e-126 6.87675e-125 6.27361e-124 5.65872e-123 5.04585e-122 4.44749e-121 3.87441e-120 3.33543e-119 2.83726e-118 2.38446e-117 1.97956e-116 1.6232e-115 1.31444e-114 1.05103e-113 8.2972e-113 6.46581e-112 4.97305e-111 3.77454e-110 2.82669e-109 2.08829e-108 1.52171e-107 1.09351e-106 7.74803e-106 5.41197e-105 3.72594e-104 2.52783e-103 1.68969e-102 1.11257e-101 7.21471e-101 4.60668e-100 2.89561e-99 1.79134e-98 1.09045e-97 6.52999e-97 3.8459e-96 2.22717e-95 1.26784e-94 7.09276e-94 3.89842e-93 2.10457e-92 1.1156e-91 5.80497e-91 2.96415e-90 1.48481e-89 7.29404e-89 3.51275e-88 1.65789e-87 7.66537e-87 3.47073e-86 1.53833e-85 6.67187e-85 2.83031e-84 1.17388e-83 4.75802e-83 1.88384e-82 7.28235e-82 2.74724e-81 1.01089e-80 3.62628e-80 1.26748e-79 4.31418e-79 1.42917e-78 4.60513e-78 1.44247e-77 4.38937e-77 1.29673e-76 3.71672e-76 1.03285e-75 2.78083e-75 7.24878e-75 1.82807e-74 4.457e-74 1.04976e-73 2.3868e-73 5.23481e-73 1.10671e-72 2.2538e-72 4.41833e-72 8.33291e-72 1.51112e-71 2.63374e-71 4.41039e-71 7.09471e-71 1.09637e-70 1.62799e-70 2.32411e-70 3.19271e-70 4.22592e-70 5.39881e-70 6.67198e-70 7.99758e-70 9.32722e-70 1.06193e-69 1.18434e-69 1.29807e-69 1.40213e-69 1.49597e-69 1.57911e-69 1.65097e-69 1.71092e-69 1.75837e-69 1.79296e-69 1.81466e-69 1.82382e-69 1.82122e-69 1.80822e-69 1.78675e-69 1.75924e-69 1.72837e-69 1.69652e-69 1.66533e-69 1.6353e-69 1.6058e-69 1.57546e-69 1.54291e-69 1.50748e-69 1.4697e-69 1.43131e-69 1.39476e-69 1.36244e-69 1.33585e-69 1.31526e-69 1.29971e-69 1.28767e-69 1.27784e-69 1.26993e-69 1.26505e-69 1.26552e-69 1.27419e-69 1.29355e-69 1.32473e-69 1.36697e-69 1.41739e-69 1.47133e-69 1.52294e-69 1.56604e-69 1.59495e-69 1.60535e-69 1.59499e-69 1.56411e-69 1.51562e-69 1.45482e-69 1.38868e-69 1.32476e-69 1.26995e-69 1.22927e-69 1.20509e-69 1.19688e-69 1.20169e-69 1.21507e-69 1.23231e-69 1.2494e-69 1.26367e-69 1.27384e-69 1.27966e-69 1.28134e-69 1.27917e-69 1.27325e-69 1.26357e-69 1.25022e-69 1.23368e-69 1.21499e-69 1.1959e-69 1.17876e-69 1.16631e-69 1.16114e-69 1.16518e-69 1.17911e-69 1.2021e-69 1.23192e-69 1.26551e-69 1.29991e-69 1.33317e-69 1.36494e-69 1.39654e-69 1.43038e-69 1.46906e-69 1.51432e-69 1.56623e-69 1.62284e-69 1.68012e-69 1.73234e-69 1.77264e-69 1.79375e-69 1.78889e-69 1.75265e-69 1.68192e-69 1.57663e-69 1.44002e-69 1.27858e-69 1.10126e-69 9.18415e-70 7.40359e-70 5.76057e-70 4.32087e-70 3.12121e-70 2.16961e-70 1.45045e-70 9.32248e-71 5.75969e-71 3.42065e-71 1.95311e-71 1.07245e-71 5.66542e-72 2.8807e-72 1.41063e-72 6.6564e-73 3.02871e-73 1.32971e-73 5.63695e-74 2.30898e-74 9.1452e-75 3.50487e-75 1.30065e-75 4.67693e-76 1.63068e-76 5.51663e-77 1.81202e-77 5.78242e-78 1.79385e-78 5.41318e-79 1.58989e-79 4.54749e-80 1.26739e-80 3.44359e-81 9.12646e-82 2.36048e-82 5.96093e-83 1.47044e-83 3.54487e-84 8.35527e-85 1.92625e-85 4.34548e-86 9.59633e-87 2.07532e-87 4.3968e-88 9.1289e-89 1.85816e-89 3.70916e-90 7.26339e-91 1.39577e-91 2.63288e-92 4.87653e-93 8.86368e-94 1.53763e-94 0 
0 9.40608e-134 9.64258e-133 9.69337e-132 9.64274e-131 9.49218e-130 9.24543e-129 8.90923e-128 8.49298e-127 8.00831e-126 7.46854e-125 6.88805e-124 6.28165e-123 5.66394e-122 5.0487e-121 4.44842e-120 3.87384e-119 3.33377e-118 2.83485e-117 2.3816e-116 1.97649e-115 1.62013e-114 1.3115e-113 1.04832e-112 8.27297e-112 6.44473e-111 4.95517e-110 3.75971e-109 2.81464e-108 2.0787e-107 1.51422e-106 1.08778e-105 7.70488e-105 5.38009e-104 3.7028e-103 2.51133e-102 1.67814e-101 1.10462e-100 7.16089e-100 4.5709e-99 2.87225e-98 1.77635e-97 1.081e-96 6.47148e-96 3.81032e-95 2.20592e-94 1.25538e-93 7.02107e-93 3.85794e-92 2.08213e-91 1.10341e-90 5.73996e-90 2.93017e-89 1.4674e-88 7.20667e-88 3.46979e-87 1.6372e-86 7.56786e-86 3.42575e-85 1.51803e-84 6.58229e-84 2.79167e-83 1.1576e-82 4.69099e-82 1.8569e-81 7.17672e-81 2.70685e-80 9.95826e-80 3.57157e-79 1.24812e-78 4.24752e-78 1.40684e-77 4.53243e-77 1.41946e-76 4.3187e-76 1.27566e-75 3.65581e-75 1.01578e-74 2.73452e-74 7.12719e-74 1.7972e-73 4.38125e-73 1.03181e-72 2.34577e-72 5.14437e-72 1.0875e-71 2.21452e-71 4.34102e-71 8.18661e-71 1.48451e-70 2.58724e-70 4.33234e-70 6.96892e-70 1.07689e-69 1.59903e-69 2.28273e-69 3.13581e-69 4.15054e-69 5.30243e-69 6.55275e-69 7.85447e-69 9.16004e-69 1.04285e-68 1.163e-68 1.2746e-68 1.37668e-68 1.4687e-68 1.55021e-68 1.62064e-68 1.67936e-68 1.72584e-68 1.75971e-68 1.78096e-68 1.78991e-68 1.78736e-68 1.77461e-68 1.75358e-68 1.72664e-68 1.69641e-68 1.66522e-68 1.63468e-68 1.60527e-68 1.57636e-68 1.54664e-68 1.51474e-68 1.48001e-68 1.44298e-68 1.40535e-68 1.36953e-68 1.33785e-68 1.3118e-68 1.29161e-68 1.27639e-68 1.2646e-68 1.25499e-68 1.24727e-68 1.24252e-68 1.24302e-68 1.25155e-68 1.27055e-68 1.30113e-68 1.34253e-68 1.39194e-68 1.44478e-68 1.49534e-68 1.53755e-68 1.56584e-68 1.576e-68 1.56581e-68 1.53552e-68 1.48797e-68 1.42837e-68 1.36353e-68 1.30087e-68 1.24714e-68 1.20727e-68 1.18357e-68 1.17553e-68 1.18025e-68 1.19339e-68 1.2103e-68 1.22708e-68 1.2411e-68 1.2511e-68 1.25682e-68 1.2585e-68 1.25639e-68 1.2506e-68 1.24113e-68 1.22805e-68 1.21183e-68 1.19349e-68 1.17474e-68 1.15789e-68 1.14562e-68 1.14049e-68 1.14437e-68 1.15796e-68 1.18044e-68 1.20962e-68 1.24251e-68 1.27621e-68 1.3088e-68 1.33995e-68 1.37094e-68 1.40412e-68 1.44205e-68 1.48642e-68 1.53731e-68 1.5928e-68 1.64893e-68 1.70009e-68 1.73955e-68 1.76021e-68 1.75539e-68 1.7198e-68 1.6504e-68 1.5471e-68 1.41308e-68 1.2547e-68 1.08073e-68 9.01334e-69 7.26624e-69 5.654e-69 4.24118e-69 3.06383e-69 2.12985e-69 1.42396e-69 9.15287e-70 5.65531e-70 3.35891e-70 1.91802e-70 1.05327e-70 5.56462e-71 2.82972e-71 1.38581e-71 6.53997e-72 2.97607e-72 1.30676e-72 5.54033e-73 2.2697e-73 8.99087e-74 3.44621e-74 1.27907e-74 4.60006e-75 1.60414e-75 5.42774e-76 1.78313e-76 5.69124e-77 1.76589e-77 5.32982e-78 1.5657e-78 4.47922e-79 1.24862e-79 3.3933e-80 8.99513e-81 2.32702e-81 5.87776e-82 1.45026e-82 3.49703e-83 8.24448e-84 1.90117e-84 4.28996e-85 9.47611e-86 2.04984e-86 4.34395e-87 9.02155e-88 1.8368e-88 3.66751e-89 7.18381e-90 1.38086e-90 2.60549e-91 4.82716e-92 8.77647e-93 1.52292e-93 0 
0 9.35732e-133 9.5891e-132 9.63603e-131 9.58217e-130 9.42907e-129 9.18059e-128 8.84352e-127 8.42726e-126 7.94346e-125 7.40537e-124 6.82733e-123 6.22404e-122 5.60999e-121 4.99883e-120 4.40291e-119 3.83286e-118 3.29734e-117 2.80289e-116 2.35393e-115 1.95285e-114 1.6002e-113 1.29492e-112 1.03472e-111 8.16283e-111 6.35678e-110 4.8859e-109 3.70592e-108 2.77345e-107 2.0476e-106 1.49108e-105 1.0708e-104 7.58221e-104 5.29273e-103 3.64152e-102 2.46899e-101 1.64932e-100 1.08531e-99 7.03358e-99 4.48827e-98 2.81947e-97 1.74319e-96 1.0605e-95 6.34689e-95 3.73587e-94 2.1622e-93 1.23015e-92 6.87801e-92 3.77828e-91 2.03858e-90 1.08004e-89 5.61688e-89 2.86658e-88 1.43518e-87 7.04664e-87 3.39188e-86 1.60004e-85 7.39432e-85 3.34639e-84 1.48252e-83 6.42684e-83 2.72513e-82 1.12976e-81 4.5772e-81 1.81148e-80 6.99973e-80 2.63957e-79 9.70887e-79 3.48147e-78 1.21642e-77 4.1389e-77 1.37063e-76 4.41504e-76 1.38248e-75 4.20556e-75 1.24206e-74 3.55903e-74 9.8876e-74 2.66145e-73 6.93593e-73 1.74878e-72 4.26276e-72 1.00381e-71 2.2819e-71 5.0039e-71 1.05773e-70 2.15373e-70 4.2216e-70 7.96096e-70 1.44352e-69 2.5157e-69 4.21238e-69 6.77574e-69 1.04702e-68 1.55463e-68 2.2193e-68 3.04864e-68 4.0351e-68 5.15488e-68 6.37028e-68 7.63557e-68 8.90447e-68 1.01372e-67 1.13045e-67 1.23884e-67 1.33796e-67 1.42728e-67 1.50636e-67 1.57468e-67 1.63163e-67 1.67668e-67 1.70951e-67 1.73009e-67 1.73876e-67 1.73627e-67 1.72391e-67 1.70352e-67 1.67741e-67 1.6481e-67 1.61788e-67 1.58827e-67 1.55975e-67 1.53173e-67 1.5029e-67 1.47196e-67 1.43827e-67 1.40234e-67 1.36584e-67 1.33109e-67 1.30036e-67 1.27508e-67 1.25551e-67 1.24074e-67 1.22933e-67 1.22002e-67 1.21257e-67 1.208e-67 1.20851e-67 1.21683e-67 1.23528e-67 1.26497e-67 1.30513e-67 1.35305e-67 1.4043e-67 1.45331e-67 1.49422e-67 1.52163e-67 1.53146e-67 1.52154e-67 1.49212e-67 1.44598e-67 1.38813e-67 1.32522e-67 1.26442e-67 1.21229e-67 1.17361e-67 1.15062e-67 1.14283e-67 1.14742e-67 1.16019e-67 1.17662e-67 1.19292e-67 1.20655e-67 1.21627e-67 1.22185e-67 1.2235e-67 1.22148e-67 1.21589e-67 1.20671e-67 1.19402e-67 1.17828e-67 1.16046e-67 1.14223e-67 1.12584e-67 1.11387e-67 1.10882e-67 1.11253e-67 1.12564e-67 1.14739e-67 1.17565e-67 1.20753e-67 1.24021e-67 1.27183e-67 1.30205e-67 1.33212e-67 1.36433e-67 1.40114e-67 1.4442e-67 1.49358e-67 1.54741e-67 1.60185e-67 1.65146e-67 1.68972e-67 1.70972e-67 1.70499e-67 1.6704e-67 1.60299e-67 1.50267e-67 1.37254e-67 1.21873e-67 1.0498e-67 8.75572e-68 7.0589e-68 5.49295e-68 4.1206e-68 2.97689e-68 2.06954e-68 1.38373e-68 8.89486e-69 5.49628e-69 3.2647e-69 1.86436e-69 1.02389e-69 5.40987e-70 2.75128e-70 1.34752e-70 6.35996e-71 2.89446e-71 1.27107e-71 5.38968e-72 2.20826e-72 8.74865e-73 3.35384e-73 1.24497e-73 4.47807e-74 1.56184e-74 5.28548e-75 1.73668e-75 5.54396e-76 1.7205e-76 5.19378e-77 1.52603e-77 4.36657e-78 1.21746e-78 3.30931e-79 8.77432e-80 2.27039e-80 5.73598e-81 1.4156e-81 3.41423e-82 8.05117e-83 1.85704e-83 4.19139e-84 9.26067e-85 2.00374e-85 4.24735e-86 8.82321e-87 1.79689e-87 3.58879e-88 7.03151e-89 1.35196e-89 2.55166e-90 4.72877e-91 8.60002e-92 1.4927e-92 0 
0 9.21141e-132 9.43614e-131 9.47883e-130 9.42237e-129 9.26842e-128 9.02087e-127 8.68649e-126 8.27462e-125 7.79676e-124 7.26599e-123 6.69642e-122 6.10252e-121 5.49849e-120 4.89774e-119 4.31235e-118 3.7527e-117 3.22725e-116 2.74235e-115 2.30229e-114 1.90935e-113 1.56401e-112 1.26521e-111 1.01063e-110 7.97013e-110 6.20463e-109 4.76737e-108 3.61481e-107 2.70437e-106 1.99595e-105 1.45299e-104 1.04311e-103 7.38376e-103 5.15257e-102 3.54396e-101 2.40209e-100 1.60413e-99 1.05525e-98 6.83666e-98 4.36128e-97 2.73887e-96 1.69285e-95 1.02957e-94 6.16002e-94 3.62483e-93 2.09733e-92 1.19291e-91 6.66794e-91 3.66187e-90 1.97524e-89 1.0462e-88 5.43945e-88 2.77531e-87 1.38913e-86 6.81882e-86 3.28141e-85 1.54755e-84 7.15003e-84 3.23508e-83 1.43288e-82 6.21023e-82 2.6327e-81 1.0912e-80 4.42008e-80 1.74894e-79 6.75673e-79 2.54744e-78 9.36824e-78 3.35872e-77 1.17332e-76 3.99158e-76 1.32163e-75 4.25652e-75 1.33265e-74 4.05336e-74 1.19695e-73 3.4293e-73 9.526e-73 2.56382e-72 6.68074e-72 1.68426e-71 4.10509e-71 9.66595e-71 2.19712e-70 4.8176e-70 1.01828e-69 2.07327e-69 4.06366e-69 7.66272e-69 1.38938e-68 2.42125e-68 4.0541e-68 6.52096e-68 1.00762e-67 1.49611e-67 2.13573e-67 2.9338e-67 3.88305e-67 4.96055e-67 6.13003e-67 7.34743e-67 8.56816e-67 9.75385e-67 1.08764e-66 1.19186e-66 1.28712e-66 1.37293e-66 1.44888e-66 1.51447e-66 1.56913e-66 1.61236e-66 1.64386e-66 1.66359e-66 1.6719e-66 1.6695e-66 1.65763e-66 1.63806e-66 1.61301e-66 1.58489e-66 1.55589e-66 1.52749e-66 1.50013e-66 1.47323e-66 1.44556e-66 1.41585e-66 1.3835e-66 1.34901e-66 1.31396e-66 1.28059e-66 1.25108e-66 1.22681e-66 1.20802e-66 1.19385e-66 1.1829e-66 1.17399e-66 1.16686e-66 1.16251e-66 1.16304e-66 1.17106e-66 1.1888e-66 1.21732e-66 1.25589e-66 1.30189e-66 1.35108e-66 1.39811e-66 1.43736e-66 1.46365e-66 1.47304e-66 1.46349e-66 1.43522e-66 1.39089e-66 1.33533e-66 1.27491e-66 1.21652e-66 1.16646e-66 1.12931e-66 1.10724e-66 1.09977e-66 1.10419e-66 1.11646e-66 1.13227e-66 1.14794e-66 1.16105e-66 1.17042e-66 1.1758e-66 1.17741e-66 1.17549e-66 1.17013e-66 1.16133e-66 1.14915e-66 1.13402e-66 1.11689e-66 1.09935e-66 1.08356e-66 1.07201e-66 1.0671e-66 1.07059e-66 1.08312e-66 1.10395e-66 1.13104e-66 1.16162e-66 1.19298e-66 1.22334e-66 1.25237e-66 1.28126e-66 1.3122e-66 1.34757e-66 1.38893e-66 1.43635e-66 1.48803e-66 1.5403e-66 1.58792e-66 1.62462e-66 1.64379e-66 1.6392e-66 1.60592e-66 1.54112e-66 1.44469e-66 1.3196e-66 1.17177e-66 1.00938e-66 8.419e-67 6.78776e-67 5.28224e-67 3.96274e-67 2.86301e-67 1.99049e-67 1.33095e-67 8.55616e-68 5.28734e-68 3.14081e-68 1.79375e-68 9.85192e-69 5.20581e-69 2.64773e-69 1.29693e-69 6.12176e-70 2.78635e-70 1.22373e-70 5.18953e-71 2.12651e-71 8.42584e-72 3.23051e-72 1.19936e-72 4.31463e-73 1.50506e-73 5.09414e-74 1.67408e-74 5.34502e-75 1.65905e-75 5.00917e-76 1.47206e-76 4.21295e-77 1.17486e-77 3.19415e-78 8.47072e-79 2.19229e-79 5.53988e-80 1.3675e-80 3.29898e-81 7.78118e-82 1.79519e-82 4.05276e-83 8.95656e-84 1.93842e-84 4.10992e-85 8.53993e-86 1.73965e-86 3.47538e-87 6.81114e-88 1.30994e-88 2.47304e-89 4.58434e-90 8.3397e-91 1.44791e-91 0 
0 8.97201e-131 9.18756e-130 9.22572e-129 9.16741e-128 9.01432e-127 8.77036e-126 8.4422e-125 8.039e-124 7.57201e-123 7.05401e-122 6.49873e-121 5.92025e-120 5.33237e-119 4.74809e-118 4.17911e-117 3.63548e-116 3.12535e-115 2.65485e-114 2.22806e-113 1.84715e-112 1.51255e-111 1.22316e-110 9.76713e-110 7.70004e-109 5.99237e-108 4.60275e-107 3.48883e-106 2.60926e-105 1.92513e-104 1.40098e-103 1.00545e-102 7.11492e-102 4.96339e-101 3.41277e-100 2.31245e-99 1.54379e-98 1.01524e-97 6.57548e-97 4.19341e-96 2.63266e-95 1.62673e-94 9.89067e-94 5.91596e-93 3.48022e-92 2.01309e-91 1.14467e-90 6.39657e-90 3.51189e-89 1.89383e-88 1.00281e-87 5.21253e-87 2.65885e-86 1.3305e-85 6.5294e-85 3.14137e-84 1.48115e-83 6.84164e-83 3.09483e-82 1.37045e-81 5.93836e-81 2.51691e-80 1.04299e-79 4.22391e-79 1.67099e-78 6.45432e-78 2.43296e-77 8.94563e-77 3.20663e-76 1.12e-75 3.80956e-75 1.26116e-74 4.06117e-74 1.2713e-73 3.86622e-73 1.14154e-72 3.27013e-72 9.08279e-72 2.44426e-71 6.36852e-71 1.60539e-70 3.9125e-70 9.21169e-70 2.0937e-69 4.59051e-69 9.70215e-69 1.9753e-68 3.87143e-68 7.29992e-68 1.32355e-67 2.30644e-67 3.86176e-67 6.21144e-67 9.59776e-67 1.42505e-66 2.03426e-66 2.79437e-66 3.69847e-66 4.72469e-66 5.83845e-66 6.99776e-66 8.16013e-66 9.28894e-66 1.03574e-65 1.1349e-65 1.22552e-65 1.30711e-65 1.37931e-65 1.44163e-65 1.49355e-65 1.53461e-65 1.56451e-65 1.58324e-65 1.59111e-65 1.58883e-65 1.57755e-65 1.55896e-65 1.53517e-65 1.50848e-65 1.48094e-65 1.45397e-65 1.42799e-65 1.40244e-65 1.37615e-65 1.34792e-65 1.31718e-65 1.2844e-65 1.25109e-65 1.21938e-65 1.19133e-65 1.16828e-65 1.15042e-65 1.13697e-65 1.12658e-65 1.11813e-65 1.11138e-65 1.10728e-65 1.10781e-65 1.11546e-65 1.13235e-65 1.15946e-65 1.19612e-65 1.23983e-65 1.28655e-65 1.33123e-65 1.36849e-65 1.39344e-65 1.40233e-65 1.39322e-65 1.36633e-65 1.32418e-65 1.27137e-65 1.21393e-65 1.15844e-65 1.11086e-65 1.07556e-65 1.05459e-65 1.04749e-65 1.05171e-65 1.06339e-65 1.07843e-65 1.09335e-65 1.10584e-65 1.11476e-65 1.1199e-65 1.12145e-65 1.11964e-65 1.11457e-65 1.10621e-65 1.09465e-65 1.08026e-65 1.06396e-65 1.04725e-65 1.0322e-65 1.02116e-65 1.01643e-65 1.01968e-65 1.03153e-65 1.05128e-65 1.07698e-65 1.10601e-65 1.1358e-65 1.16465e-65 1.19224e-65 1.21971e-65 1.24914e-65 1.28276e-65 1.32207e-65 1.36715e-65 1.41626e-65 1.46592e-65 1.51116e-65 1.54602e-65 1.56419e-65 1.55978e-65 1.5281e-65 1.46643e-65 1.37469e-65 1.2557e-65 1.11506e-65 9.60567e-66 8.01221e-66 6.4601e-66 5.02751e-66 3.77185e-66 2.72524e-66 1.89481e-66 1.26705e-66 8.14588e-67 5.03413e-67 2.9906e-67 1.70808e-67 9.38209e-68 4.95794e-68 2.52187e-68 1.23539e-68 5.83181e-69 2.65464e-69 1.16601e-69 4.94527e-70 2.02666e-70 8.03116e-71 3.07958e-71 1.14347e-71 4.11416e-72 1.43534e-72 4.85889e-73 1.59702e-73 5.09981e-74 1.5832e-74 4.78101e-75 1.40526e-75 4.02252e-76 1.12197e-76 3.05095e-77 8.0926e-78 2.09486e-78 5.29479e-79 1.30729e-79 3.15442e-80 7.44188e-81 1.7173e-81 3.87784e-82 8.57205e-83 1.85566e-83 3.93542e-84 8.1794e-85 1.66663e-85 3.33038e-86 6.52869e-87 1.25596e-87 2.37177e-88 4.39782e-89 8.0026e-90 1.38975e-90 0 
0 8.64564e-130 8.85015e-129 8.88365e-128 8.82426e-127 8.67375e-126 8.43594e-125 8.11735e-124 7.72688e-123 7.2754e-122 6.77527e-121 6.2397e-120 5.68226e-119 5.11621e-118 4.55401e-117 4.00688e-116 3.48444e-115 2.99447e-114 2.54279e-113 2.13328e-112 1.76797e-111 1.44722e-110 1.16994e-109 9.33896e-109 7.36003e-108 5.72586e-107 4.39659e-106 3.33147e-105 2.49076e-104 1.8371e-103 1.33649e-102 9.58864e-102 6.78309e-101 4.73042e-100 3.25156e-99 2.20254e-98 1.46997e-97 9.664e-97 6.25724e-96 3.98927e-95 2.50376e-94 1.54663e-93 9.40093e-93 5.62142e-92 3.30602e-91 1.91179e-90 1.08677e-89 6.07137e-89 3.33245e-88 1.79658e-87 9.51072e-87 4.94232e-86 2.52038e-85 1.2609e-84 6.18632e-84 2.97559e-83 1.40266e-82 6.47758e-82 2.92949e-81 1.29695e-80 5.61864e-80 2.3809e-79 9.86425e-79 3.99403e-78 1.57974e-77 6.10072e-77 2.29925e-76 8.45249e-76 3.02935e-75 1.0579e-74 3.59777e-74 1.19087e-73 3.83425e-73 1.2001e-72 3.6492e-72 1.07732e-71 3.08582e-71 8.56989e-71 2.30599e-70 6.00767e-70 1.51429e-69 3.69016e-69 8.68752e-69 1.97442e-68 4.32871e-68 9.14829e-68 1.86244e-67 3.65007e-67 6.88225e-67 1.24778e-66 2.17434e-66 3.64049e-66 5.85542e-66 9.04751e-66 1.34333e-65 1.91759e-65 2.63408e-65 3.48627e-65 4.45356e-65 5.50331e-65 6.5959e-65 7.69125e-65 8.75479e-65 9.76124e-65 1.0695e-64 1.1548e-64 1.23158e-64 1.29949e-64 1.3581e-64 1.40691e-64 1.4455e-64 1.47359e-64 1.49118e-64 1.49857e-64 1.49641e-64 1.4858e-64 1.46833e-64 1.44598e-64 1.42089e-64 1.39502e-64 1.36967e-64 1.34525e-64 1.32124e-64 1.29652e-64 1.26998e-64 1.24107e-64 1.21024e-64 1.17891e-64 1.14909e-64 1.12272e-64 1.10104e-64 1.08425e-64 1.0716e-64 1.06185e-64 1.05392e-64 1.0476e-64 1.04377e-64 1.04431e-64 1.05153e-64 1.06744e-64 1.09295e-64 1.12742e-64 1.16852e-64 1.21244e-64 1.25443e-64 1.28945e-64 1.31288e-64 1.32121e-64 1.31262e-64 1.2873e-64 1.24764e-64 1.19796e-64 1.14393e-64 1.09173e-64 1.04698e-64 1.01378e-64 9.94059e-65 9.87394e-65 9.91372e-65 1.00238e-64 1.01654e-64 1.0306e-64 1.04237e-64 1.05078e-64 1.05564e-64 1.05712e-64 1.05544e-64 1.05068e-64 1.04283e-64 1.03195e-64 1.01841e-64 1.00306e-64 9.87313e-65 9.73109e-65 9.62677e-65 9.58166e-65 9.61164e-65 9.72255e-65 9.90773e-65 1.01491e-64 1.04219e-64 1.07019e-64 1.09732e-64 1.12327e-64 1.14912e-64 1.17681e-64 1.20844e-64 1.24543e-64 1.28782e-64 1.33401e-64 1.38071e-64 1.42324e-64 1.45599e-64 1.47305e-64 1.46886e-64 1.439e-64 1.38093e-64 1.29455e-64 1.18252e-64 1.05011e-64 9.04657e-65 7.5462e-65 6.08466e-65 4.73556e-65 3.55301e-65 2.56726e-65 1.78507e-65 1.19374e-65 7.67498e-66 4.7434e-66 2.81807e-66 1.60965e-66 8.84202e-67 4.67289e-67 2.37706e-67 1.16455e-67 5.49788e-68 2.50286e-68 1.09945e-68 4.66347e-69 1.91138e-69 7.57522e-70 2.9051e-70 1.07882e-70 3.88207e-71 1.35456e-71 4.58609e-72 1.50759e-72 4.81497e-73 1.49502e-73 4.51546e-74 1.32744e-74 3.80044e-75 1.06022e-75 2.8836e-76 7.6502e-77 1.98074e-77 5.00739e-78 1.23659e-78 2.98447e-79 7.04251e-80 1.62551e-80 3.67142e-81 8.11766e-82 1.75771e-82 3.72861e-83 7.75149e-84 1.57984e-84 3.15776e-85 6.19191e-86 1.19148e-86 2.25062e-87 4.17432e-88 7.59798e-89 1.31983e-89 0 
0 8.24144e-129 8.43335e-128 8.46218e-127 8.40254e-126 8.25622e-125 8.02695e-124 7.72102e-123 7.34697e-122 6.91522e-121 6.43755e-120 5.92658e-119 5.3952e-118 4.85603e-117 4.32091e-116 3.80046e-115 3.30379e-114 2.83823e-113 2.40929e-112 2.02059e-111 1.67401e-110 1.36984e-109 1.10701e-108 8.83371e-108 6.95953e-107 5.41249e-106 4.1546e-105 3.14708e-104 2.35214e-103 1.73431e-102 1.26131e-101 9.04633e-101 6.39744e-100 4.46008e-99 3.06479e-98 2.07538e-97 1.38468e-96 9.10058e-96 5.89068e-95 3.75446e-94 2.3557e-93 1.45475e-92 8.83992e-92 5.28446e-91 3.10698e-90 1.7962e-89 1.02078e-88 5.70118e-88 3.12843e-87 1.68615e-86 8.92384e-86 4.63617e-85 2.36367e-84 1.18221e-83 5.79885e-83 2.78856e-82 1.31419e-81 6.06766e-81 2.74349e-80 1.21434e-79 5.25967e-79 2.22832e-78 9.23027e-78 3.73661e-77 1.47764e-76 5.70538e-76 2.14988e-75 7.902e-75 2.83158e-74 9.88683e-74 3.36186e-73 1.11262e-72 3.5818e-72 1.12093e-71 3.40805e-71 1.00601e-70 2.88123e-70 8.00086e-70 2.15266e-69 5.6077e-69 1.41335e-68 3.44392e-68 8.10723e-68 1.84242e-67 4.03907e-67 8.53573e-67 1.73766e-66 3.40537e-66 6.42065e-66 1.16405e-65 2.0284e-65 3.39608e-65 5.46222e-65 8.43985e-65 1.2531e-64 1.78876e-64 2.4571e-64 3.25201e-64 4.15424e-64 5.13335e-64 6.15234e-64 7.17376e-64 8.16535e-64 9.10348e-64 9.97363e-64 1.07682e-63 1.14831e-63 1.21153e-63 1.26606e-63 1.31147e-63 1.34735e-63 1.37346e-63 1.38981e-63 1.39667e-63 1.39465e-63 1.38478e-63 1.36853e-63 1.34774e-63 1.32442e-63 1.30036e-63 1.2768e-63 1.25409e-63 1.23175e-63 1.20876e-63 1.18406e-63 1.15716e-63 1.12847e-63 1.09932e-63 1.07157e-63 1.04702e-63 1.02685e-63 1.01123e-63 9.99472e-64 9.90404e-64 9.83051e-64 9.77192e-64 9.73654e-64 9.74182e-64 9.80931e-64 9.95753e-64 1.01951e-63 1.05159e-63 1.08983e-63 1.13069e-63 1.16974e-63 1.20229e-63 1.22407e-63 1.2318e-63 1.22377e-63 1.20019e-63 1.16326e-63 1.11701e-63 1.06672e-63 1.01814e-63 9.7649e-64 9.45592e-64 9.27242e-64 9.21047e-64 9.24763e-64 9.35021e-64 9.48224e-64 9.6133e-64 9.72302e-64 9.80158e-64 9.84696e-64 9.8609e-64 9.84543e-64 9.80131e-64 9.72834e-64 9.62711e-64 9.50101e-64 9.35793e-64 9.21107e-64 9.07845e-64 8.98086e-64 8.93832e-64 8.96565e-64 9.06834e-64 9.24022e-64 9.4645e-64 9.71812e-64 9.97858e-64 1.0231e-63 1.04726e-63 1.07132e-63 1.0971e-63 1.12656e-63 1.16099e-63 1.20045e-63 1.24343e-63 1.28688e-63 1.32643e-63 1.35689e-63 1.37273e-63 1.36879e-63 1.34095e-63 1.28683e-63 1.20636e-63 1.10199e-63 9.7863e-64 8.43109e-64 7.03311e-64 5.67122e-64 4.41402e-64 3.31193e-64 2.39319e-64 1.66413e-64 1.11292e-64 7.15576e-65 4.42276e-65 2.62773e-65 1.50102e-65 8.24585e-66 4.35812e-66 2.2171e-66 1.08626e-66 5.12873e-67 2.33501e-67 1.02581e-67 4.35155e-68 1.78372e-68 7.07004e-69 2.71168e-69 1.00712e-69 3.6245e-70 1.26485e-70 4.28297e-71 1.40814e-71 4.49805e-72 1.39683e-72 4.2196e-73 1.24068e-73 3.55265e-74 9.91273e-75 2.69657e-75 7.15539e-76 1.85299e-76 4.68538e-77 1.15731e-77 2.79372e-78 6.59381e-79 1.52228e-79 3.43904e-80 7.60562e-81 1.64723e-81 3.49509e-82 7.26779e-83 1.48163e-83 2.9622e-84 5.80993e-85 1.11827e-85 2.11289e-86 3.91992e-87 7.13686e-88 1.24005e-88 0 
0 7.77073e-128 7.94883e-127 7.97309e-126 7.91402e-125 7.77339e-124 7.5548e-123 7.26426e-122 6.90986e-121 6.50148e-120 6.05023e-119 5.56803e-118 5.06702e-117 4.55905e-116 4.05524e-115 3.56555e-114 3.09851e-113 2.66097e-112 2.25804e-111 1.8931e-110 1.56786e-109 1.28254e-108 1.03612e-107 8.26523e-107 6.5095e-106 5.06084e-105 3.88341e-104 2.9407e-103 2.19719e-102 1.61953e-101 1.17746e-100 8.44233e-100 5.96843e-99 4.1597e-98 2.85751e-97 1.93443e-96 1.29025e-95 8.4774e-95 5.48568e-94 3.49531e-93 2.19246e-92 1.35355e-91 8.22267e-91 4.9141e-90 2.88843e-89 1.66939e-88 9.48466e-88 5.29587e-87 2.90526e-86 1.56547e-85 8.28301e-85 4.30217e-84 2.19285e-83 1.09651e-82 5.37721e-82 2.58521e-81 1.21808e-80 5.62265e-80 2.54173e-79 1.1248e-78 4.87083e-78 2.06317e-77 8.54451e-77 3.45834e-76 1.36735e-75 5.27859e-75 1.98871e-74 7.30843e-74 2.61847e-73 9.14131e-73 3.1079e-72 1.02843e-71 3.31032e-71 1.03584e-70 3.14897e-70 9.29428e-70 2.66162e-69 7.39028e-69 1.9882e-68 5.17884e-68 1.30516e-67 3.18006e-67 7.48562e-67 1.70105e-66 3.72897e-66 7.88005e-66 1.60411e-65 3.14356e-65 5.92684e-65 1.0745e-64 1.87232e-64 3.13471e-64 5.04178e-64 7.79016e-64 1.15663e-63 1.65105e-63 2.26792e-63 3.0016e-63 3.83431e-63 4.73793e-63 5.67827e-63 6.62074e-63 7.53551e-63 8.40075e-63 9.20303e-63 9.93535e-63 1.05941e-62 1.11762e-62 1.16783e-62 1.20962e-62 1.24263e-62 1.26666e-62 1.28169e-62 1.28799e-62 1.28612e-62 1.27704e-62 1.26208e-62 1.24295e-62 1.22149e-62 1.19936e-62 1.17768e-62 1.15679e-62 1.13624e-62 1.11507e-62 1.09233e-62 1.06756e-62 1.04115e-62 1.01431e-62 9.88755e-63 9.66158e-63 9.47584e-63 9.33211e-63 9.2239e-63 9.14054e-63 9.07301e-63 9.01929e-63 8.98697e-63 8.99209e-63 9.05447e-63 9.19113e-63 9.40995e-63 9.70539e-63 1.00574e-62 1.04334e-62 1.07928e-62 1.10923e-62 1.12925e-62 1.13634e-62 1.12893e-62 1.10719e-62 1.07317e-62 1.03057e-62 9.8426e-63 9.39519e-63 9.01165e-63 8.72715e-63 8.55822e-63 8.50126e-63 8.5356e-63 8.63022e-63 8.75199e-63 8.87288e-63 8.97412e-63 9.04666e-63 9.08864e-63 9.10165e-63 9.08756e-63 9.04705e-63 8.97994e-63 8.88673e-63 8.77053e-63 8.63859e-63 8.50306e-63 8.38054e-63 8.2902e-63 8.25051e-63 8.27516e-63 8.36922e-63 8.52707e-63 8.73326e-63 8.96656e-63 9.20628e-63 9.43868e-63 9.6612e-63 9.88284e-63 1.01203e-62 1.03917e-62 1.07088e-62 1.10722e-62 1.14679e-62 1.18679e-62 1.2232e-62 1.25122e-62 1.26578e-62 1.2621e-62 1.23642e-62 1.18652e-62 1.11234e-62 1.01613e-62 9.02408e-63 7.77474e-63 6.48589e-63 5.23022e-63 4.07098e-63 3.05469e-63 2.20743e-63 1.53503e-63 1.02664e-63 6.60134e-64 4.08031e-64 2.4244e-64 1.38495e-64 7.6087e-65 4.02163e-65 2.04606e-65 1.00253e-65 4.73376e-66 2.15536e-66 9.46969e-67 4.01747e-67 1.64694e-67 6.52855e-68 2.50426e-68 9.30188e-69 3.34805e-69 1.16853e-69 3.95732e-70 1.30126e-70 4.15722e-71 1.29119e-71 3.90108e-72 1.14721e-72 3.28556e-73 9.16908e-74 2.49472e-74 6.62101e-75 1.71494e-75 4.33714e-76 1.07151e-76 2.58714e-77 6.10753e-78 1.41032e-78 3.18682e-79 7.04942e-80 1.52712e-80 3.241e-81 6.74106e-82 1.37458e-82 2.74887e-83 5.39289e-84 1.03827e-84 1.96224e-85 3.64139e-86 6.63153e-87 1.15254e-87 0 