# vtk DataFile Version 3.0
Gray-Scott Simulation Output
ASCII
DATASET STRUCTURED_POINTS
DIMENSIONS 256 256 1
SPACING 1.0 1.0 1.0
ORIGIN 0 0 0
POINT_DATA 65536
SCALARS u double
LOOKUP_TABLE default
0 0 0 0 0 0 0 0 0 0 0 0 0 0 0 0 0 0 0 0 0 0 0 0 0 0 0 0 0 0 0 0 0 0 0 0 0 0 0 0 0 0 0 0 0 0 0 0 0 0 0 0 0 0 0 0 0 0 0 0 0 0 0 0 0 0 0 0 0 0 0 0 0 0 0 0 0 0 0 0 0 0 0 0 0 0 0 0 0 0 0 0 0 0 0 0 0 0 0 0 0 0 0 0 0 0 0 0 0 0 0 0 0 0 0 0 0 0 0 0 0 0 0 0 0 0 0 0 0 0 0 0 0 0 0 0 0 0 0 0 0 0 0 0 0 0 0 0 0 0 0 0 0 0 0 0 0 0 0 0 0 0 0 0 0 0 0 0 0 0 0 0 0 0 0 0 0 0 0 0 0 0 0 0 0 0 0 0 0 0 0 0 0 0 0 0 0 0 0 0 0 0 0 0 0 0 0 0 0 0 0 0 0 0 0 0 0 0 0 0 0 0 0 0 0 0 0 0 0 0 0 0 0 0 0 0 0 0 0 0 0 0 0 0 0 0 0 0 0 0 0 0 0 0 0 0 
0 1.62101e-74 5.36058e-74 1.60186e-73 4.70389e-73 1.36908e-72 3.95299e-72 1.13233e-71 3.21777e-71 9.07084e-71 2.53647e-70 7.03523e-70 1.9354e-69 5.28061e-69 1.42888e-68 3.83422e-68 1.02026e-67 2.69195e-67 7.04246e-67 1.82666e-66 4.6972e-66 1.19742e-65 3.02588e-65 7.57929e-65 1.88171e-64 4.63015e-64 1.12909e-63 2.72853e-63 6.53377e-63 1.55027e-62 3.64446e-62 8.48806e-62 1.95842e-61 4.47607e-61 1.01333e-60 2.27215e-60 5.04576e-60 1.10965e-59 2.41651e-59 5.21072e-59 1.11246e-58 2.35134e-58 4.91994e-58 1.01902e-57 2.08907e-57 4.23874e-57 8.51137e-57 1.69125e-56 3.32527e-56 6.46879e-56 1.24498e-55 2.37033e-55 4.46402e-55 8.31539e-55 1.53194e-54 2.79104e-54 5.02832e-54 8.95728e-54 1.57758e-53 2.74684e-53 4.72788e-53 8.04371e-53 1.3526e-52 2.24788e-52 3.69176e-52 5.99126e-52 9.60715e-52 1.52206e-51 2.38233e-51 3.68363e-51 5.62632e-51 8.48834e-51 1.26487e-50 1.86155e-50 2.70573e-50 3.88382e-50 5.50533e-50 7.70627e-50 1.0652e-49 1.45392e-49 1.95961e-49 2.60807e-49 3.42764e-49 4.44849e-49 5.70146e-49 7.21672e-49 9.02206e-49 1.11409e-48 1.35903e-48 1.6379e-48 1.95057e-48 2.29574e-48 2.67091e-48 3.07232e-48 3.49508e-48 3.93326e-48 4.38018e-48 4.82866e-48 5.27134e-48 5.70108e-48 6.11123e-48 6.49596e-48 6.85045e-48 7.17109e-48 7.45551e-48 7.7026e-48 7.91238e-48 8.08588e-48 8.22493e-48 8.33199e-48 8.40989e-48 8.46168e-48 8.49043e-48 8.49915e-48 8.49066e-48 8.46754e-48 8.43213e-48 8.38654e-48 8.33265e-48 8.27214e-48 8.20656e-48 8.13733e-48 8.06581e-48 7.9933e-48 7.92105e-48 7.85028e-48 7.7822e-48 7.71796e-48 7.65866e-48 7.6053e-48 7.55878e-48 7.51985e-48 7.48904e-48 7.46669e-48 7.45286e-48 7.44731e-48 7.44952e-48 7.45862e-48 7.47349e-48 7.49272e-48 7.51469e-48 7.53767e-48 7.55988e-48 7.57959e-48 7.59523e-48 7.60548e-48 7.60937e-48 7.60632e-48 7.59619e-48 7.57925e-48 7.55617e-48 7.52794e-48 7.49579e-48 7.46108e-48 7.42519e-48 7.38941e-48 7.35483e-48 7.32233e-48 7.29247e-48 7.26555e-48 7.24159e-48 7.22039e-48 7.20161e-48 7.18484e-48 7.1697e-48 7.15588e-48 7.14324e-48 7.13185e-48 7.122e-48 7.1142e-48 7.10918e-48 7.10784e-48 7.1112e-48 7.12034e-48 7.13633e-48 7.16015e-48 7.19266e-48 7.23451e-48 7.2861e-48 7.34751e-48 7.41844e-48 7.49819e-48 7.58559e-48 7.67895e-48 7.77602e-48 7.87395e-48 7.96928e-48 8.05794e-48 8.1353e-48 8.19628e-48 8.23544e-48 8.24722e-48 8.22614e-48 8.16713e-48 8.06574e-48 7.91855e-48 7.72336e-48 7.47947e-48 7.18782e-48 6.85105e-48 6.47351e-48 6.06107e-48 5.62089e-48 5.1611e-48 4.69042e-48 4.21773e-48 3.75164e-48 3.30012e-48 2.87018e-48 2.46759e-48 2.09674e-48 1.7606e-48 1.4607e-48 1.19728e-48 9.69457e-49 7.7539e-49 6.12551e-49 4.7794e-49 3.68294e-49 2.80282e-49 2.10652e-49 1.56351e-49 1.14605e-49 8.29608e-50 5.93088e-50 4.18745e-50 2.91996e-50 2.01102e-50 1.36799e-50 9.19171e-51 6.10067e-51 3.99989e-51 2.59079e-51 1.65789e-51 1.0482e-51 6.54827e-52 4.04232e-52 2.46596e-52 1.48669e-52 8.85872e-53 5.21752e-53 3.03762e-53 1.74828e-53 9.94792e-54 5.59664e-54 3.11337e-54 1.71268e-54 9.31736e-55 5.01309e-55 2.66751e-55 1.40333e-55 7.28802e-56 3.71248e-56 1.80454e-56 7.30211e-57 0 
0 5.35445e-74 1.77105e-73 5.29367e-73 1.55491e-72 4.52684e-72 1.30742e-71 3.74617e-71 1.06487e-70 3.00275e-70 8.39912e-70 2.33033e-69 6.4128e-69 1.75025e-68 4.73755e-68 1.27169e-67 3.38503e-67 8.9345e-67 2.33819e-66 6.06693e-66 1.56066e-65 3.97995e-65 1.00611e-64 2.5211e-64 6.26157e-64 1.54134e-63 3.76016e-63 9.09039e-63 2.1777e-62 5.16921e-62 1.21572e-61 2.83267e-61 6.53858e-61 1.49508e-60 3.38621e-60 7.5962e-60 1.68765e-59 3.71317e-59 8.08998e-59 1.74526e-58 3.72781e-58 7.88302e-58 1.65023e-57 3.41963e-57 7.01392e-57 1.42382e-56 2.86043e-56 5.68662e-56 1.11863e-55 2.1772e-55 4.19228e-55 7.98566e-55 1.50467e-54 2.80421e-54 5.16869e-54 9.42139e-54 1.69817e-53 3.02649e-53 5.33283e-53 9.28966e-53 1.59967e-52 2.72279e-52 4.58055e-52 7.61564e-52 1.25126e-51 2.03144e-51 3.25874e-51 5.16477e-51 8.08679e-51 1.25083e-50 1.91111e-50 2.88414e-50 4.29895e-50 6.32853e-50 9.20059e-50 1.32094e-49 1.87278e-49 2.6219e-49 3.6246e-49 4.9478e-49 6.66912e-49 8.8763e-49 1.16656e-48 1.51393e-48 1.9402e-48 2.45556e-48 3.06936e-48 3.78945e-48 4.62147e-48 5.5682e-48 6.62894e-48 7.79905e-48 9.06972e-48 1.04279e-47 1.18567e-47 1.33357e-47 1.4842e-47 1.63511e-47 1.78379e-47 1.92782e-47 2.06497e-47 2.19326e-47 2.31111e-47 2.41733e-47 2.51118e-47 2.59232e-47 2.66081e-47 2.71707e-47 2.76175e-47 2.79575e-47 2.82005e-47 2.83572e-47 2.84381e-47 2.84536e-47 2.84131e-47 2.83254e-47 2.81982e-47 2.80386e-47 2.78527e-47 2.76459e-47 2.74234e-47 2.71896e-47 2.69489e-47 2.67056e-47 2.64636e-47 2.6227e-47 2.59997e-47 2.57854e-47 2.55877e-47 2.54099e-47 2.5255e-47 2.51254e-47 2.5023e-47 2.49488e-47 2.49029e-47 2.48847e-47 2.48924e-47 2.4923e-47 2.49729e-47 2.50373e-47 2.51109e-47 2.51879e-47 2.52623e-47 2.53283e-47 2.53807e-47 2.54152e-47 2.54285e-47 2.54187e-47 2.53852e-47 2.5329e-47 2.52523e-47 2.51585e-47 2.50516e-47 2.49362e-47 2.48169e-47 2.46979e-47 2.4583e-47 2.4475e-47 2.43758e-47 2.42864e-47 2.42069e-47 2.41365e-47 2.40742e-47 2.40185e-47 2.39682e-47 2.39222e-47 2.38801e-47 2.38422e-47 2.38093e-47 2.37832e-47 2.37664e-47 2.37619e-47 2.37731e-47 2.38037e-47 2.38572e-47 2.3937e-47 2.4046e-47 2.41865e-47 2.43598e-47 2.45664e-47 2.48053e-47 2.50744e-47 2.53698e-47 2.56861e-47 2.60158e-47 2.63496e-47 2.66758e-47 2.69811e-47 2.72498e-47 2.7465e-47 2.76081e-47 2.76606e-47 2.76036e-47 2.74199e-47 2.70942e-47 2.66145e-47 2.5973e-47 2.51671e-47 2.41993e-47 2.30783e-47 2.18183e-47 2.0439e-47 1.89643e-47 1.74215e-47 1.584e-47 1.42499e-47 1.26804e-47 1.11585e-47 9.70816e-48 8.34909e-48 7.09638e-48 5.96024e-48 4.9461e-48 4.05495e-48 3.28389e-48 2.62687e-48 2.07542e-48 1.61946e-48 1.248e-48 9.49777e-49 7.13819e-49 5.29797e-49 3.88316e-49 2.81073e-49 2.00918e-49 1.41838e-49 9.88903e-50 6.80952e-50 4.63126e-50 3.11114e-50 2.06443e-50 1.3532e-50 8.76258e-51 5.60575e-51 3.54318e-51 2.21279e-51 1.36554e-51 8.32749e-52 5.01881e-52 2.98947e-52 1.76007e-52 1.02432e-52 5.89316e-53 3.35196e-53 1.88505e-53 1.04822e-53 5.76394e-54 3.13442e-54 1.68574e-54 8.96622e-55 4.71499e-55 2.44765e-55 1.24633e-55 6.05593e-56 2.44991e-56 0 
0 1.59783e-73 5.28637e-73 1.58058e-72 4.64416e-72 1.35252e-71 3.90762e-71 1.12005e-70 3.18493e-70 8.98421e-70 2.51394e-69 6.97755e-69 1.92088e-68 5.24473e-68 1.4202e-67 3.81377e-67 1.01558e-66 2.68166e-66 7.02103e-66 1.82255e-65 4.69042e-65 1.19667e-64 3.02652e-64 7.58734e-64 1.88533e-63 4.64313e-63 1.13326e-62 2.74108e-62 6.56984e-62 1.56028e-61 3.67143e-61 8.55904e-61 1.97671e-60 4.52228e-60 1.0248e-59 2.30018e-59 5.11316e-59 1.12562e-58 2.45382e-58 5.29668e-58 1.132e-57 2.39517e-57 5.01699e-57 1.04024e-56 2.13486e-56 4.33633e-56 8.71679e-56 1.73395e-55 3.41296e-55 6.64662e-55 1.2806e-54 2.4408e-54 4.60175e-54 8.58122e-54 1.58261e-53 2.88645e-53 5.20572e-53 9.28303e-53 1.63664e-52 2.85259e-52 4.91483e-52 8.37004e-52 1.40884e-51 2.34355e-51 3.8524e-51 6.25752e-51 1.00427e-50 1.59239e-50 2.49438e-50 3.85979e-50 5.8996e-50 8.90661e-50 1.32803e-49 1.95562e-49 2.84396e-49 4.08415e-49 5.79168e-49 8.10994e-49 1.12132e-48 1.53085e-48 2.0636e-48 2.74668e-48 3.6098e-48 4.6845e-48 6.00294e-48 7.59641e-48 9.49345e-48 1.17179e-47 1.42865e-47 1.72073e-47 2.04771e-47 2.40807e-47 2.79898e-47 3.21631e-47 3.65471e-47 4.10781e-47 4.56846e-47 5.02901e-47 5.48174e-47 5.91918e-47 6.33447e-47 6.72166e-47 7.07596e-47 7.39389e-47 7.67331e-47 7.91342e-47 8.11462e-47 8.27836e-47 8.40688e-47 8.50306e-47 8.57008e-47 8.61132e-47 8.6301e-47 8.62963e-47 8.61282e-47 8.58235e-47 8.54057e-47 8.48954e-47 8.43109e-47 8.36682e-47 8.29818e-47 8.22651e-47 8.15306e-47 8.07903e-47 8.00561e-47 7.93396e-47 7.86522e-47 7.80048e-47 7.74082e-47 7.68722e-47 7.64055e-47 7.60153e-47 7.57072e-47 7.54842e-47 7.5347e-47 7.52932e-47 7.53173e-47 7.5411e-47 7.55626e-47 7.57582e-47 7.59814e-47 7.62148e-47 7.64405e-47 7.6641e-47 7.68004e-47 7.69057e-47 7.69469e-47 7.69183e-47 7.68183e-47 7.66498e-47 7.64194e-47 7.61374e-47 7.58159e-47 7.54688e-47 7.51099e-47 7.47522e-47 7.44067e-47 7.40821e-47 7.37842e-47 7.35158e-47 7.3277e-47 7.30658e-47 7.28787e-47 7.27115e-47 7.25603e-47 7.2422e-47 7.22952e-47 7.21806e-47 7.20812e-47 7.20024e-47 7.19514e-47 7.19376e-47 7.19715e-47 7.2064e-47 7.22262e-47 7.24686e-47 7.27999e-47 7.32274e-47 7.37556e-47 7.43858e-47 7.5116e-47 7.59399e-47 7.68464e-47 7.78195e-47 7.88372e-47 7.98714e-47 8.08877e-47 8.1845e-47 8.26966e-47 8.33902e-47 8.38697e-47 8.40774e-47 8.39556e-47 8.34503e-47 8.25137e-47 8.1108e-47 7.92077e-47 7.68028e-47 7.39001e-47 7.05245e-47 6.67185e-47 6.25407e-47 5.80641e-47 5.3372e-47 4.85543e-47 4.37033e-47 3.8909e-47 3.4255e-47 2.98153e-47 2.56514e-47 2.18102e-47 1.83241e-47 1.52104e-47 1.24728e-47 1.01031e-47 8.08307e-48 6.38704e-48 4.98429e-48 3.84123e-48 2.9234e-48 2.19711e-48 1.63062e-48 1.19508e-48 8.64944e-49 6.18202e-49 4.36351e-49 3.0417e-49 2.09405e-49 1.42386e-49 9.56263e-50 6.3436e-50 4.15688e-50 2.6909e-50 1.72088e-50 1.08732e-50 6.78798e-51 4.18731e-51 2.55252e-51 1.53771e-51 9.15547e-52 5.38794e-52 3.13425e-52 1.80237e-52 1.02469e-52 5.75977e-53 3.20127e-53 1.75945e-53 9.56309e-54 5.14059e-54 2.73283e-54 1.43636e-54 7.45272e-55 3.79303e-55 1.84225e-55 7.45045e-56 0 
0 4.68529e-73 1.55053e-72 4.63748e-72 1.36308e-71 3.97111e-71 1.14772e-70 3.29096e-70 9.36157e-70 2.64177e-69 7.39504e-69 2.05334e-68 5.65503e-68 1.54468e-67 4.18453e-67 1.12418e-66 2.99493e-66 7.91172e-66 2.07235e-65 5.38197e-65 1.38573e-64 3.53711e-64 8.95007e-64 2.24484e-63 5.58086e-63 1.37513e-62 3.35806e-62 8.12655e-62 1.94881e-61 4.63074e-61 1.09024e-60 2.54302e-60 5.87639e-60 1.34515e-59 3.05003e-59 6.84978e-59 1.52356e-58 3.35599e-58 7.32029e-58 1.58107e-57 3.3811e-57 7.15839e-57 1.50034e-56 3.11278e-56 6.3923e-56 1.29922e-55 2.61331e-55 5.20171e-55 1.0245e-54 1.99645e-54 3.84899e-54 7.34074e-54 1.38485e-53 2.58406e-53 4.76869e-53 8.70277e-53 1.57051e-52 2.8023e-52 4.94357e-52 8.62149e-52 1.4863e-51 2.53263e-51 4.26529e-51 7.09903e-51 1.16759e-50 1.89751e-50 3.04684e-50 4.83344e-50 7.57478e-50 1.17263e-49 1.79308e-49 2.70807e-49 4.03937e-49 5.95028e-49 8.65582e-49 1.24339e-48 1.76366e-48 2.47011e-48 3.41588e-48 4.66405e-48 6.28775e-48 8.36945e-48 1.09995e-47 1.42737e-47 1.82893e-47 2.31408e-47 2.89142e-47 3.56803e-47 4.34886e-47 5.23605e-47 6.22843e-47 7.32103e-47 8.5049e-47 9.76714e-47 1.10912e-46 1.24573e-46 1.38435e-46 1.52264e-46 1.65825e-46 1.78891e-46 1.91256e-46 2.02742e-46 2.13207e-46 2.22552e-46 2.30717e-46 2.37684e-46 2.43473e-46 2.48133e-46 2.51739e-46 2.54383e-46 2.56165e-46 2.57192e-46 2.57566e-46 2.57385e-46 2.56737e-46 2.55704e-46 2.54353e-46 2.52747e-46 2.50937e-46 2.48969e-46 2.46885e-46 2.44723e-46 2.42517e-46 2.40301e-46 2.3811e-46 2.35976e-46 2.33932e-46 2.3201e-46 2.3024e-46 2.28651e-46 2.27268e-46 2.26114e-46 2.25203e-46 2.24544e-46 2.2414e-46 2.23984e-46 2.24059e-46 2.2434e-46 2.24794e-46 2.25377e-46 2.26043e-46 2.2674e-46 2.27413e-46 2.28011e-46 2.28488e-46 2.28804e-46 2.2893e-46 2.28848e-46 2.28555e-46 2.28058e-46 2.27378e-46 2.26545e-46 2.25595e-46 2.24568e-46 2.23507e-46 2.2245e-46 2.21429e-46 2.2047e-46 2.19591e-46 2.18799e-46 2.18094e-46 2.17471e-46 2.16919e-46 2.16426e-46 2.15979e-46 2.1557e-46 2.15195e-46 2.14855e-46 2.1456e-46 2.14325e-46 2.14173e-46 2.14132e-46 2.14232e-46 2.14508e-46 2.14992e-46 2.15715e-46 2.16706e-46 2.17986e-46 2.19569e-46 2.21461e-46 2.23656e-46 2.26139e-46 2.28877e-46 2.31824e-46 2.34916e-46 2.38072e-46 2.41189e-46 2.44146e-46 2.46803e-46 2.49004e-46 2.5058e-46 2.51356e-46 2.51158e-46 2.49818e-46 2.4719e-46 2.43156e-46 2.37634e-46 2.3059e-46 2.22038e-46 2.12048e-46 2.00746e-46 1.88305e-46 1.74941e-46 1.60906e-46 1.46469e-46 1.31909e-46 1.175e-46 1.03496e-46 9.01231e-47 7.75683e-47 6.59772e-47 5.54497e-47 4.60408e-47 3.77638e-47 3.05955e-47 2.44823e-47 1.93479e-47 1.51e-47 1.16378e-47 8.85726e-48 6.65667e-48 4.94016e-48 3.62036e-48 2.61996e-48 1.8723e-48 1.32132e-48 9.20883e-49 6.3384e-49 4.30876e-49 2.89296e-49 1.91855e-49 1.2568e-49 8.13296e-50 5.19932e-50 3.28388e-50 2.04928e-50 1.26362e-50 7.69953e-51 4.63636e-51 2.75922e-51 1.62303e-51 9.43689e-52 5.4241e-52 3.08218e-52 1.73162e-52 9.61939e-53 5.28415e-53 2.87057e-53 1.54224e-53 8.19446e-54 4.30466e-54 2.23234e-54 1.13556e-54 5.51284e-55 2.22877e-55 0 
0 1.36168e-72 4.50753e-72 1.34861e-71 3.96533e-71 1.15565e-70 3.34128e-70 9.58433e-70 2.72744e-69 7.69969e-69 2.15622e-68 5.9895e-68 1.65023e-67 4.50954e-67 1.22216e-66 3.28482e-66 8.755e-66 2.31387e-65 6.06363e-65 1.57549e-64 4.05846e-64 1.03644e-63 2.62385e-63 6.58443e-63 1.63778e-62 4.03762e-62 9.86506e-62 2.38864e-61 5.73128e-61 1.36261e-60 3.20986e-60 7.4914e-60 1.7321e-59 3.96723e-59 9.0007e-59 2.02259e-58 4.50146e-58 9.92153e-58 2.16548e-57 4.68002e-57 1.00144e-56 2.12157e-56 4.44947e-56 9.23729e-56 1.89816e-55 3.86047e-55 7.77015e-55 1.54763e-54 3.05013e-54 5.94768e-54 1.14741e-53 2.18975e-53 4.13372e-53 7.71828e-53 1.42527e-52 2.60275e-52 4.69994e-52 8.39147e-52 1.48127e-51 2.58488e-51 4.45887e-51 7.60236e-51 1.28108e-50 2.1334e-50 3.51075e-50 5.70856e-50 9.17101e-50 1.45559e-49 2.28223e-49 3.53466e-49 5.40722e-49 8.16977e-49 1.21907e-48 1.7964e-48 2.61403e-48 3.75607e-48 5.32906e-48 7.4653e-48 1.03255e-47 1.41004e-47 1.9011e-47 2.53064e-47 3.32591e-47 4.31573e-47 5.52937e-47 6.99515e-47 8.73865e-47 1.07808e-46 1.31361e-46 1.58102e-46 1.87986e-46 2.20855e-46 2.56428e-46 2.94305e-46 3.33975e-46 3.74834e-46 4.16212e-46 4.57398e-46 4.97679e-46 5.36376e-46 5.7287e-46 6.06636e-46 6.37262e-46 6.6446e-46 6.88073e-46 7.08066e-46 7.24517e-46 7.37596e-46 7.47546e-46 7.54659e-46 7.59253e-46 7.61652e-46 7.62175e-46 7.61118e-46 7.58747e-46 7.553e-46 7.50981e-46 7.45965e-46 7.40404e-46 7.34428e-46 7.2815e-46 7.21677e-46 7.15105e-46 7.08531e-46 7.02046e-46 6.95744e-46 6.89718e-46 6.84058e-46 6.78853e-46 6.74184e-46 6.70125e-46 6.66737e-46 6.64066e-46 6.6214e-46 6.60962e-46 6.60512e-46 6.60743e-46 6.61581e-46 6.62925e-46 6.64652e-46 6.66622e-46 6.6868e-46 6.70671e-46 6.72443e-46 6.73856e-46 6.74796e-46 6.75177e-46 6.74947e-46 6.74095e-46 6.72644e-46 6.70653e-46 6.68212e-46 6.65428e-46 6.62421e-46 6.59312e-46 6.56214e-46 6.53224e-46 6.50418e-46 6.47844e-46 6.45526e-46 6.43467e-46 6.41645e-46 6.40031e-46 6.38588e-46 6.3728e-46 6.36081e-46 6.34979e-46 6.33979e-46 6.3311e-46 6.32418e-46 6.31969e-46 6.31847e-46 6.32143e-46 6.32957e-46 6.34388e-46 6.36532e-46 6.39469e-46 6.43268e-46 6.47974e-46 6.53606e-46 6.60155e-46 6.67574e-46 6.75777e-46 6.8463e-46 6.93952e-46 7.03504e-46 7.12989e-46 7.2205e-46 7.30273e-46 7.37194e-46 7.4231e-46 7.45094e-46 7.45018e-46 7.41579e-46 7.34326e-46 7.22891e-46 7.07019e-46 6.86588e-46 6.6163e-46 6.32339e-46 5.99074e-46 5.62345e-46 5.22793e-46 4.81163e-46 4.38262e-46 3.94927e-46 3.51978e-46 3.10185e-46 2.70229e-46 2.32682e-46 1.97988e-46 1.66453e-46 1.38249e-46 1.13425e-46 9.19139e-47 7.35618e-47 5.81423e-47 4.53816e-47 3.49782e-47 2.66217e-47 2.00073e-47 1.48475e-47 1.088e-47 7.87267e-48 5.62525e-48 3.96916e-48 2.76571e-48 1.90319e-48 1.29343e-48 8.68185e-49 5.75586e-49 3.76931e-49 2.43833e-49 1.55822e-49 9.83789e-50 6.13676e-50 3.78243e-50 2.30371e-50 1.38658e-50 8.24804e-51 4.84933e-51 2.8182e-51 1.61902e-51 9.19518e-52 5.16332e-52 2.86678e-52 1.57395e-52 8.54572e-53 4.58876e-53 2.43683e-53 1.27939e-53 6.63114e-54 3.3714e-54 1.63596e-54 6.61175e-55 0 
0 3.92583e-72 1.29993e-71 3.89058e-71 1.14437e-70 3.33637e-70 9.64995e-70 2.76912e-69 7.88327e-69 2.22638e-68 6.23729e-68 1.73331e-67 4.77766e-67 1.30614e-66 3.54144e-66 9.52265e-66 2.53923e-65 6.71407e-65 1.7603e-64 4.57594e-64 1.17934e-63 3.01328e-63 7.63229e-63 1.91628e-62 4.76898e-62 1.17632e-61 2.87566e-61 6.9667e-61 1.67252e-60 3.97867e-60 9.37779e-60 2.18993e-59 5.06637e-59 1.1611e-58 2.63586e-58 5.92679e-58 1.31988e-57 2.91092e-57 6.35741e-57 1.37483e-56 2.9438e-56 6.24051e-56 1.30965e-55 2.72067e-55 5.59437e-55 1.13853e-54 2.29311e-54 4.57039e-54 9.01353e-54 1.75879e-53 3.39529e-53 6.48401e-53 1.22484e-52 2.28849e-52 4.22874e-52 7.72739e-52 1.39629e-51 2.4946e-51 4.40628e-51 7.69401e-51 1.32802e-50 2.26565e-50 3.82013e-50 6.36541e-50 1.04809e-49 1.70516e-49 2.74086e-49 4.35241e-49 6.82753e-49 1.05793e-48 1.6191e-48 2.44732e-48 3.65323e-48 5.38528e-48 7.839e-48 1.12671e-47 1.59898e-47 2.24046e-47 3.09942e-47 4.23316e-47 5.70799e-47 7.59859e-47 9.98662e-47 1.29582e-46 1.66009e-46 2.09986e-46 2.62273e-46 3.23483e-46 3.94031e-46 4.74067e-46 5.63431e-46 6.61617e-46 7.67752e-46 8.80605e-46 9.98613e-46 1.11994e-45 1.24255e-45 1.3643e-45 1.48305e-45 1.59678e-45 1.70364e-45 1.8021e-45 1.89096e-45 1.96941e-45 2.03704e-45 2.09381e-45 2.14001e-45 2.17621e-45 2.2032e-45 2.22188e-45 2.23326e-45 2.23833e-45 2.23806e-45 2.23335e-45 2.22498e-45 2.21366e-45 2.19998e-45 2.18445e-45 2.16749e-45 2.14946e-45 2.13068e-45 2.11144e-45 2.09201e-45 2.07264e-45 2.0536e-45 2.03513e-45 2.0175e-45 2.00097e-45 1.98578e-45 1.97216e-45 1.96034e-45 1.95048e-45 1.94271e-45 1.93712e-45 1.93372e-45 1.93243e-45 1.93314e-45 1.93561e-45 1.93956e-45 1.94463e-45 1.95041e-45 1.95645e-45 1.96229e-45 1.9675e-45 1.97165e-45 1.97443e-45 1.97557e-45 1.97493e-45 1.97247e-45 1.96827e-45 1.96249e-45 1.9554e-45 1.9473e-45 1.93856e-45 1.92953e-45 1.92052e-45 1.91184e-45 1.90369e-45 1.89621e-45 1.88949e-45 1.88351e-45 1.87823e-45 1.87355e-45 1.86936e-45 1.86556e-45 1.86208e-45 1.85887e-45 1.85595e-45 1.85341e-45 1.85139e-45 1.85007e-45 1.84971e-45 1.85058e-45 1.85297e-45 1.85717e-45 1.86347e-45 1.87211e-45 1.88331e-45 1.89719e-45 1.91384e-45 1.93322e-45 1.95523e-45 1.97963e-45 2.00604e-45 2.03394e-45 2.06264e-45 2.09129e-45 2.11885e-45 2.14411e-45 2.16568e-45 2.18209e-45 2.19177e-45 2.19312e-45 2.18464e-45 2.16495e-45 2.13293e-45 2.08777e-45 2.02906e-45 1.95685e-45 1.87167e-45 1.77456e-45 1.66698e-45 1.55083e-45 1.42829e-45 1.30177e-45 1.17375e-45 1.04669e-45 9.22886e-46 8.04387e-46 6.92921e-46 5.89831e-46 4.96055e-46 4.1213e-46 3.38214e-46 2.74133e-46 2.19437e-46 1.73464e-46 1.35406e-46 1.04372e-46 7.94386e-47 5.97005e-47 4.43016e-47 3.24608e-47 2.34857e-47 1.67787e-47 1.18369e-47 8.24625e-48 5.67322e-48 3.85458e-48 2.58655e-48 1.71429e-48 1.12225e-48 7.25714e-49 4.63595e-49 2.92576e-49 1.82429e-49 1.12393e-49 6.84227e-50 4.11637e-50 2.44745e-50 1.43824e-50 8.35415e-51 4.7969e-51 2.72296e-51 1.52819e-51 8.48026e-52 4.65337e-52 2.52514e-52 1.35516e-52 7.19242e-53 3.77407e-53 1.95502e-53 9.93439e-54 4.81833e-54 1.94665e-54 0 
0 1.12289e-71 3.71919e-71 1.11351e-70 3.27647e-70 9.55605e-70 2.76501e-69 7.93752e-69 2.26061e-68 6.38698e-68 1.79009e-67 4.97667e-67 1.37236e-66 3.75349e-66 1.01817e-65 2.73904e-65 7.3071e-65 1.93302e-64 5.07048e-64 1.31873e-63 3.40044e-63 8.69275e-63 2.20292e-62 5.53391e-62 1.37794e-61 3.40072e-61 8.31805e-61 2.01631e-60 4.84337e-60 1.15283e-59 2.71885e-59 6.35292e-59 1.47063e-58 3.37243e-58 7.66059e-58 1.72358e-57 3.84079e-57 8.4761e-57 1.85237e-56 4.00848e-56 8.58863e-56 1.8219e-55 3.82604e-55 7.95359e-55 1.63656e-54 3.3329e-54 6.71735e-54 1.33975e-53 2.64401e-53 5.16276e-53 9.97337e-53 1.90593e-52 3.60281e-52 6.73605e-52 1.24556e-51 2.2776e-51 4.11822e-51 7.36245e-51 1.3013e-50 2.27373e-50 3.92705e-50 6.70385e-50 1.13103e-49 1.88574e-49 3.10676e-49 5.05729e-49 8.13348e-49 1.29226e-48 2.02815e-48 3.14414e-48 4.81413e-48 7.27983e-48 1.08713e-47 1.60316e-47 2.3344e-47 3.35629e-47 4.7644e-47 6.67734e-47 9.23914e-47 1.26207e-46 1.70196e-46 2.26583e-46 2.97796e-46 3.86396e-46 4.94971e-46 6.26007e-46 7.81731e-46 9.63932e-46 1.17379e-45 1.41168e-45 1.67705e-45 1.96831e-45 2.28275e-45 2.61663e-45 2.96518e-45 3.32287e-45 3.68355e-45 4.04082e-45 4.38831e-45 4.71997e-45 5.03043e-45 5.31519e-45 5.57081e-45 5.79507e-45 5.98688e-45 6.14633e-45 6.27446e-45 6.37317e-45 6.44493e-45 6.49262e-45 6.5193e-45 6.52802e-45 6.5217e-45 6.50301e-45 6.47432e-45 6.43766e-45 6.39475e-45 6.34703e-45 6.29567e-45 6.24168e-45 6.18591e-45 6.12915e-45 6.07209e-45 6.01546e-45 5.95993e-45 5.90623e-45 5.85505e-45 5.80713e-45 5.76314e-45 5.72377e-45 5.68959e-45 5.66112e-45 5.63872e-45 5.62262e-45 5.61284e-45 5.60922e-45 5.61134e-45 5.6186e-45 5.63013e-45 5.6449e-45 5.66172e-45 5.6793e-45 5.69631e-45 5.71146e-45 5.72359e-45 5.73172e-45 5.73512e-45 5.73336e-45 5.72633e-45 5.71424e-45 5.69761e-45 5.67716e-45 5.65382e-45 5.62861e-45 5.60255e-45 5.5766e-45 5.55156e-45 5.52808e-45 5.50656e-45 5.4872e-45 5.47001e-45 5.45482e-45 5.44135e-45 5.42929e-45 5.41835e-45 5.40829e-45 5.39901e-45 5.39058e-45 5.38322e-45 5.37735e-45 5.37353e-45 5.37247e-45 5.37499e-45 5.38194e-45 5.39418e-45 5.41256e-45 5.43781e-45 5.47054e-45 5.51121e-45 5.56003e-45 5.61701e-45 5.68184e-45 5.75386e-45 5.83206e-45 5.91496e-45 6.00061e-45 6.08654e-45 6.16975e-45 6.2467e-45 6.3134e-45 6.36546e-45 6.39822e-45 6.40698e-45 6.38721e-45 6.33476e-45 6.24621e-45 6.11902e-45 5.95188e-45 5.74477e-45 5.49914e-45 5.21789e-45 4.90528e-45 4.5668e-45 4.20887e-45 3.83855e-45 3.46319e-45 3.09005e-45 2.72599e-45 2.37713e-45 2.04863e-45 1.74454e-45 1.46769e-45 1.21976e-45 1.00126e-45 8.11732e-46 6.49889e-46 5.13807e-46 4.01118e-46 3.09203e-46 2.35343e-46 1.76864e-46 1.31238e-46 9.6153e-47 6.95592e-47 4.96872e-47 3.50465e-47 2.44101e-47 1.67895e-47 1.14043e-47 7.65043e-48 5.06885e-48 3.31716e-48 2.14429e-48 1.36927e-48 8.63799e-49 5.38374e-49 3.3154e-49 2.01743e-49 1.21313e-49 7.20931e-50 4.23442e-50 2.45834e-50 1.41082e-50 8.00422e-51 4.48974e-51 2.49007e-51 1.36561e-51 7.40626e-52 3.97243e-52 2.10713e-52 1.10504e-52 5.72098e-53 2.9055e-53 1.40853e-53 5.68855e-54 0 
0 3.18616e-71 1.05562e-70 3.16162e-70 9.30643e-70 2.71533e-69 7.85983e-69 2.25723e-68 6.43122e-68 1.8178e-67 5.09695e-67 1.41763e-66 3.91097e-66 1.07016e-65 2.90425e-65 7.81658e-65 2.08627e-64 5.52173e-64 1.44911e-63 3.77077e-63 9.72816e-63 2.48817e-62 6.30888e-62 1.5857e-61 3.95056e-61 9.7553e-61 2.38747e-60 5.79059e-60 1.39177e-59 3.3147e-59 7.82212e-59 1.82885e-58 4.23619e-58 9.72046e-58 2.20944e-57 4.97428e-57 1.10918e-56 2.44941e-56 5.35647e-56 1.15991e-55 2.48691e-55 5.27905e-55 1.10937e-54 2.30776e-54 4.75184e-54 9.684e-54 1.95314e-53 3.89821e-53 7.69858e-53 1.5043e-52 2.90804e-52 5.56124e-52 1.05199e-51 1.96824e-51 3.64198e-51 6.66426e-51 1.20582e-50 2.1572e-50 3.81537e-50 6.6709e-50 1.15291e-49 1.96939e-49 3.32471e-49 5.54659e-49 9.14348e-49 1.48927e-48 2.39648e-48 3.80961e-48 5.98216e-48 9.2784e-48 1.42133e-47 2.15025e-47 3.21241e-47 4.73903e-47 6.90306e-47 9.92804e-47 1.40972e-46 1.97622e-46 2.73496e-46 3.73656e-46 5.03951e-46 6.7096e-46 8.81858e-46 1.14419e-45 1.46559e-45 1.85333e-45 2.3139e-45 2.85249e-45 3.4724e-45 4.17457e-45 4.95712e-45 5.81506e-45 6.74014e-45 7.72093e-45 8.74312e-45 9.79004e-45 1.08434e-44 1.18841e-44 1.28932e-44 1.38531e-44 1.47479e-44 1.55647e-44 1.62937e-44 1.69288e-44 1.74673e-44 1.79101e-44 1.82608e-44 1.85255e-44 1.8712e-44 1.88293e-44 1.88867e-44 1.88935e-44 1.88584e-44 1.87893e-44 1.86932e-44 1.85761e-44 1.84427e-44 1.82972e-44 1.81429e-44 1.79823e-44 1.78178e-44 1.76515e-44 1.74853e-44 1.73209e-44 1.71602e-44 1.70052e-44 1.68578e-44 1.672e-44 1.65936e-44 1.64806e-44 1.63826e-44 1.6301e-44 1.62369e-44 1.61909e-44 1.61631e-44 1.6153e-44 1.61593e-44 1.61804e-44 1.62138e-44 1.62565e-44 1.63051e-44 1.63559e-44 1.6405e-44 1.64488e-44 1.64839e-44 1.65075e-44 1.65175e-44 1.65127e-44 1.64928e-44 1.64584e-44 1.64108e-44 1.63524e-44 1.62856e-44 1.62135e-44 1.61389e-44 1.60647e-44 1.59931e-44 1.5926e-44 1.58645e-44 1.58093e-44 1.57602e-44 1.57168e-44 1.56784e-44 1.5644e-44 1.56127e-44 1.55839e-44 1.55573e-44 1.55331e-44 1.5512e-44 1.5495e-44 1.5484e-44 1.5481e-44 1.54882e-44 1.55083e-44 1.55437e-44 1.5597e-44 1.56701e-44 1.57652e-44 1.58834e-44 1.60255e-44 1.61917e-44 1.63813e-44 1.65924e-44 1.68222e-44 1.70668e-44 1.73205e-44 1.75763e-44 1.78257e-44 1.80584e-44 1.82629e-44 1.84262e-44 1.85347e-44 1.85747e-44 1.85325e-44 1.83957e-44 1.81541e-44 1.77998e-44 1.73284e-44 1.67396e-44 1.60372e-44 1.52293e-44 1.43281e-44 1.33493e-44 1.23118e-44 1.12361e-44 1.01437e-44 9.05612e-45 7.99349e-45 6.97398e-45 6.01294e-45 5.12247e-45 4.31113e-45 3.58399e-45 2.94277e-45 2.38628e-45 1.91085e-45 1.51094e-45 1.17968e-45 9.09413e-46 6.92194e-46 5.20188e-46 3.85973e-46 2.82762e-46 2.04531e-46 1.46077e-46 1.03015e-46 7.17351e-47 4.93279e-47 3.34969e-47 2.24641e-47 1.48789e-47 9.73367e-48 6.28973e-48 4.01482e-48 2.53168e-48 1.57722e-48 9.70838e-49 5.90481e-49 3.54898e-49 2.10802e-49 1.23752e-49 7.18077e-50 4.11877e-50 2.33549e-50 1.3093e-50 7.25746e-51 3.97788e-51 2.15612e-51 1.15578e-51 6.12713e-52 3.21135e-52 1.66161e-52 8.43403e-53 4.0866e-53 1.64984e-53 0 
0 8.96822e-71 2.97218e-70 8.90503e-70 2.62226e-69 7.65397e-69 2.21641e-68 6.36783e-68 1.81506e-67 5.1325e-67 1.43973e-66 4.00617e-66 1.10572e-65 3.027e-65 8.21867e-65 2.21305e-64 5.90961e-64 1.56487e-63 4.10891e-63 1.06974e-62 2.76125e-62 7.06623e-62 1.79265e-61 4.50821e-61 1.12379e-60 2.77662e-60 6.79931e-60 1.65008e-59 3.96836e-59 9.45695e-59 2.23305e-58 5.22423e-58 1.21086e-57 2.78025e-57 6.32356e-57 1.42461e-56 3.17873e-56 7.02433e-56 1.53716e-55 3.33088e-55 7.14654e-55 1.51808e-54 3.19243e-54 6.64571e-54 1.36937e-53 2.7927e-53 5.63657e-53 1.12579e-52 2.22493e-52 4.35066e-52 8.41655e-52 1.61071e-51 3.04908e-51 5.70885e-51 1.0571e-50 1.93571e-50 3.50489e-50 6.27458e-50 1.11053e-49 1.943e-49 3.36026e-49 5.74372e-49 9.70276e-49 1.61972e-48 2.67172e-48 4.35422e-48 7.01071e-48 1.11509e-47 1.75193e-47 2.71865e-47 4.16661e-47 6.30632e-47 9.42545e-47 1.39102e-46 2.02695e-46 2.91613e-46 4.14193e-46 5.80782e-46 8.03936e-46 1.09854e-45 1.48178e-45 1.973e-45 2.59323e-45 3.36458e-45 4.30932e-45 5.44868e-45 6.80144e-45 8.38243e-45 1.02009e-44 1.2259e-44 1.45505e-44 1.70599e-44 1.97622e-44 2.2623e-44 2.55993e-44 2.86415e-44 3.16953e-44 3.47043e-44 3.76129e-44 4.03693e-44 4.29278e-44 4.52511e-44 4.73119e-44 4.90935e-44 5.05899e-44 5.18048e-44 5.27509e-44 5.34476e-44 5.39193e-44 5.41935e-44 5.42984e-44 5.4262e-44 5.41104e-44 5.38669e-44 5.35517e-44 5.31819e-44 5.27714e-44 5.23314e-44 5.18708e-44 5.13967e-44 5.09152e-44 5.04315e-44 4.99504e-44 4.94768e-44 4.90155e-44 4.85716e-44 4.81502e-44 4.77569e-44 4.73968e-44 4.7075e-44 4.67962e-44 4.65644e-44 4.63825e-44 4.62521e-44 4.61736e-44 4.61454e-44 4.61643e-44 4.62251e-44 4.6321e-44 4.64434e-44 4.65826e-44 4.6728e-44 4.68688e-44 4.69944e-44 4.70952e-44 4.71633e-44 4.71926e-44 4.71797e-44 4.71237e-44 4.70263e-44 4.68916e-44 4.67258e-44 4.65364e-44 4.63317e-44 4.61202e-44 4.59095e-44 4.57065e-44 4.55162e-44 4.53421e-44 4.51856e-44 4.50466e-44 4.49239e-44 4.48151e-44 4.47176e-44 4.46289e-44 4.45472e-44 4.44716e-44 4.44027e-44 4.43424e-44 4.4294e-44 4.42626e-44 4.42538e-44 4.42746e-44 4.43322e-44 4.44339e-44 4.45868e-44 4.47974e-44 4.50711e-44 4.54121e-44 4.5823e-44 4.63043e-44 4.68543e-44 4.74685e-44 4.81393e-44 4.88554e-44 4.96015e-44 5.03576e-44 5.10994e-44 5.17977e-44 5.24189e-44 5.29258e-44 5.32789e-44 5.34372e-44 5.33611e-44 5.30138e-44 5.23638e-44 5.13876e-44 5.00713e-44 4.84125e-44 4.64208e-44 4.4119e-44 4.15415e-44 3.87336e-44 3.57492e-44 3.26482e-44 2.94932e-44 2.63468e-44 2.32682e-44 2.03108e-44 1.752e-44 1.49316e-44 1.25712e-44 1.04542e-44 8.58617e-45 6.96408e-45 5.57764e-45 4.41097e-45 3.44424e-45 2.65532e-45 2.02112e-45 1.51885e-45 1.12691e-45 8.25492e-46 5.9703e-46 4.26333e-46 3.00597e-46 2.09276e-46 1.4387e-46 9.76698e-47 6.54805e-47 4.3356e-47 2.8353e-47 1.83142e-47 1.16855e-47 7.36557e-48 4.58666e-48 2.82196e-48 1.71555e-48 1.03059e-48 6.11835e-49 3.58992e-49 2.08195e-49 1.19352e-49 6.76393e-50 3.78977e-50 2.09946e-50 1.15006e-50 6.22999e-51 3.33758e-51 1.76829e-51 9.26236e-52 4.78965e-52 2.42975e-52 1.1767e-52 4.74881e-53 0 