# vtk DataFile Version 3.0
Gray-Scott Simulation Output
ASCII
DATASET STRUCTURED_POINTS
DIMENSIONS 256 256 1
SPACING 1.0 1.0 1.0
ORIGIN 0 0 0
POINT_DATA 65536
SCALARS u double
LOOKUP_TABLE default
0 0 0 0 0 0 0 0 0 0 0 0 0 0 0 0 0 0 0 0 0 0 0 0 0 0 0 0 0 0 0 0 0 0 0 0 0 0 0 0 0 0 0 0 0 0 0 0 0 0 0 0 0 0 0 0 0 0 0 0 0 0 0 0 0 0 0 0 0 0 0 0 0 0 0 0 0 0 0 0 0 0 0 0 0 0 0 0 0 0 0 0 0 0 0 0 0 0 0 0 0 0 0 0 0 0 0 0 0 0 0 0 0 0 0 0 0 0 0 0 0 0 0 0 0 0 0 0 0 0 0 0 0 0 0 0 0 0 0 0 0 0 0 0 0 0 0 0 0 0 0 0 0 0 0 0 0 0 0 0 0 0 0 0 0 0 0 0 0 0 0 0 0 0 0 0 0 0 0 0 0 0 0 0 0 0 0 0 0 0 0 0 0 0 0 0 0 0 0 0 0 0 0 0 0 0 0 0 0 0 0 0 0 0 0 0 0 0 0 0 0 0 0 0 0 0 0 0 0 0 0 0 0 0 0 0 0 0 0 0 0 0 0 0 0 0 0 0 0 0 0 0 0 0 0 0 
0 1.15685e-73 3.73074e-73 1.08179e-72 3.07945e-72 8.688e-72 2.4319e-71 6.7544e-71 1.86135e-70 5.08922e-70 1.38049e-69 3.71494e-69 9.91714e-69 2.62612e-68 6.89783e-68 1.79704e-67 4.64333e-67 1.18988e-66 3.02381e-66 7.62007e-66 1.90412e-65 4.71776e-65 1.15893e-64 2.82251e-64 6.81465e-64 1.63101e-63 3.86945e-63 9.099e-63 2.12063e-62 4.89817e-62 1.12118e-61 2.54309e-61 5.71563e-61 1.27278e-60 2.80805e-60 6.13742e-60 1.32883e-59 2.84985e-59 6.05367e-59 1.27358e-58 2.65348e-58 5.47464e-58 1.11845e-57 2.26236e-57 4.53069e-57 8.98237e-57 1.76283e-56 3.42442e-56 6.58402e-56 1.25282e-55 2.3591e-55 4.39573e-55 8.10417e-55 1.47824e-54 2.66753e-54 4.76174e-54 8.40777e-54 1.46832e-53 2.53602e-53 4.33154e-53 7.31573e-53 1.2217e-52 2.01713e-52 3.29253e-52 5.3128e-52 8.47389e-52 1.33591e-51 2.08152e-51 3.20526e-51 4.8775e-51 7.33429e-51 1.08973e-50 1.59979e-50 2.3204e-50 3.32509e-50 4.70725e-50 6.58324e-50 9.09513e-50 1.24127e-49 1.67343e-49 2.22859e-49 2.93181e-49 3.81007e-49 4.89139e-49 6.20369e-49 7.77336e-49 9.62363e-49 1.17727e-48 1.42319e-48 1.7004e-48 2.00818e-48 2.34471e-48 2.70703e-48 3.09105e-48 3.49167e-48 3.90297e-48 4.31839e-48 4.73108e-48 5.13418e-48 5.52116e-48 5.8861e-48 6.22394e-48 6.53072e-48 6.80362e-48 7.04107e-48 7.24266e-48 7.40906e-48 7.54184e-48 7.64329e-48 7.71617e-48 7.76358e-48 7.78869e-48 7.79462e-48 7.78436e-48 7.7606e-48 7.72578e-48 7.68202e-48 7.63114e-48 7.57474e-48 7.51418e-48 7.45068e-48 7.38533e-48 7.31912e-48 7.25304e-48 7.188e-48 7.12493e-48 7.06473e-48 7.00828e-48 6.95642e-48 6.90992e-48 6.86947e-48 6.83563e-48 6.80881e-48 6.78922e-48 6.77687e-48 6.77152e-48 6.77269e-48 6.77964e-48 6.79139e-48 6.80677e-48 6.82445e-48 6.84298e-48 6.86091e-48 6.87682e-48 6.88944e-48 6.89771e-48 6.90083e-48 6.89833e-48 6.89006e-48 6.87623e-48 6.85736e-48 6.83421e-48 6.80775e-48 6.77904e-48 6.74918e-48 6.71918e-48 6.68995e-48 6.66219e-48 6.63641e-48 6.61287e-48 6.59166e-48 6.57267e-48 6.5557e-48 6.54049e-48 6.52679e-48 6.51441e-48 6.5033e-48 6.49356e-48 6.48547e-48 6.47949e-48 6.47625e-48 6.47654e-48 6.48121e-48 6.49121e-48 6.50747e-48 6.53086e-48 6.56217e-48 6.602e-48 6.65078e-48 6.70864e-48 6.77542e-48 6.85061e-48 6.93325e-48 7.02195e-48 7.1148e-48 7.20935e-48 7.30255e-48 7.39083e-48 7.47006e-48 7.53566e-48 7.5827e-48 7.60609e-48 7.60076e-48 7.56192e-48 7.48533e-48 7.36755e-48 7.20623e-48 7.00027e-48 6.75007e-48 6.45752e-48 6.12605e-48 5.76053e-48 5.36705e-48 4.95268e-48 4.52512e-48 4.09237e-48 3.66231e-48 3.2424e-48 2.83932e-48 2.45876e-48 2.10521e-48 1.78193e-48 1.49089e-48 1.23286e-48 1.00751e-48 8.1362e-49 6.49234e-49 5.11877e-49 3.98747e-49 3.06889e-49 2.33352e-49 1.75299e-49 1.30103e-49 9.53968e-50 6.91077e-50 4.94621e-50 3.49769e-50 2.44381e-50 1.68711e-50 1.15087e-50 7.75781e-51 5.1677e-51 3.40192e-51 2.21332e-51 1.42325e-51 9.04603e-52 5.68335e-52 3.52978e-52 2.16728e-52 1.31563e-52 7.89656e-53 4.68656e-53 2.75052e-53 1.59643e-53 9.16409e-54 5.20316e-54 2.92222e-54 1.62351e-54 8.92301e-55 4.85135e-55 2.60817e-55 1.38411e-55 7.19928e-56 3.56511e-56 1.46228e-56 0 
0 3.72657e-73 1.20205e-72 3.48648e-72 9.92757e-72 2.80167e-71 7.84466e-71 2.17946e-70 6.00794e-70 1.64318e-69 4.4587e-69 1.20025e-68 3.20517e-68 8.49037e-68 2.23088e-67 5.81401e-67 1.50281e-66 3.85243e-66 9.79372e-66 2.46898e-65 6.17191e-65 1.52978e-64 3.75945e-64 9.1596e-64 2.21239e-63 5.2973e-63 1.25727e-62 2.95773e-62 6.89631e-62 1.59359e-61 3.64931e-61 8.28116e-61 1.86205e-60 4.14839e-60 9.15653e-60 2.00223e-59 4.33712e-59 9.30599e-59 1.97773e-58 4.1628e-58 8.67733e-58 1.79118e-57 3.6611e-57 7.40922e-57 1.48454e-56 2.94465e-56 5.78188e-56 1.12373e-55 2.16164e-55 4.11526e-55 7.75302e-55 1.44534e-54 2.66601e-54 4.86533e-54 8.78389e-54 1.56874e-53 2.77123e-53 4.84191e-53 8.36661e-53 1.42967e-52 2.41571e-52 4.03592e-52 6.66647e-52 1.08861e-51 1.75728e-51 2.80393e-51 4.42207e-51 6.89262e-51 1.06173e-50 1.61618e-50 2.43098e-50 3.613e-50 5.30547e-50 7.69713e-50 1.10322e-49 1.5621e-49 2.18501e-49 3.01913e-49 4.12085e-49 5.55598e-49 7.39951e-49 9.73452e-49 1.26503e-48 1.62396e-48 2.05944e-48 2.58018e-48 3.19376e-48 3.9061e-48 4.72081e-48 5.63861e-48 6.65689e-48 7.76935e-48 8.96591e-48 1.02328e-47 1.15527e-47 1.2906e-47 1.42706e-47 1.56237e-47 1.69427e-47 1.82058e-47 1.93937e-47 2.04898e-47 2.14814e-47 2.23596e-47 2.31196e-47 2.37606e-47 2.42854e-47 2.46995e-47 2.50111e-47 2.52297e-47 2.53659e-47 2.54304e-47 2.54338e-47 2.53859e-47 2.52957e-47 2.51711e-47 2.50191e-47 2.48456e-47 2.46556e-47 2.44534e-47 2.42428e-47 2.40272e-47 2.38097e-47 2.35932e-47 2.33808e-47 2.31751e-47 2.29791e-47 2.27956e-47 2.26271e-47 2.24762e-47 2.2345e-47 2.22353e-47 2.21484e-47 2.20851e-47 2.20452e-47 2.20281e-47 2.20322e-47 2.2055e-47 2.20934e-47 2.21436e-47 2.22013e-47 2.22617e-47 2.23202e-47 2.23721e-47 2.24134e-47 2.24405e-47 2.24509e-47 2.24431e-47 2.24165e-47 2.23719e-47 2.23109e-47 2.2236e-47 2.21504e-47 2.20574e-47 2.19608e-47 2.18637e-47 2.17691e-47 2.16793e-47 2.1596e-47 2.15199e-47 2.14513e-47 2.13899e-47 2.13351e-47 2.12859e-47 2.12416e-47 2.12015e-47 2.11655e-47 2.11339e-47 2.11076e-47 2.10882e-47 2.10777e-47 2.10786e-47 2.10939e-47 2.11265e-47 2.11796e-47 2.12561e-47 2.13585e-47 2.1489e-47 2.16489e-47 2.18388e-47 2.20583e-47 2.23059e-47 2.25785e-47 2.28719e-47 2.31797e-47 2.34943e-47 2.38057e-47 2.41023e-47 2.43707e-47 2.45958e-47 2.47614e-47 2.48508e-47 2.4847e-47 2.47343e-47 2.44982e-47 2.41272e-47 2.36132e-47 2.29523e-47 2.21452e-47 2.11979e-47 2.01214e-47 1.89314e-47 1.76477e-47 1.62935e-47 1.48942e-47 1.3476e-47 1.2065e-47 1.0686e-47 9.36101e-48 8.10907e-48 6.94521e-48 5.88033e-48 4.92112e-48 4.07028e-48 3.32691e-48 2.68709e-48 2.14445e-48 1.69092e-48 1.3173e-48 1.01388e-48 7.70946e-49 5.79147e-49 4.29814e-49 3.15139e-49 2.28275e-49 1.63365e-49 1.15508e-49 8.06925e-50 5.56976e-50 3.79874e-50 2.56012e-50 1.70499e-50 1.12213e-50 7.29881e-51 4.69212e-51 2.98142e-51 1.87257e-51 1.16264e-51 7.13628e-52 4.33058e-52 2.59836e-52 1.54156e-52 9.04403e-53 5.24728e-53 3.01099e-53 1.70891e-53 9.59384e-54 5.32796e-54 2.92713e-54 1.5908e-54 8.54892e-55 4.53491e-55 2.35787e-55 1.16722e-55 4.78634e-56 0 
0 1.07911e-72 3.48176e-72 1.0102e-71 2.8775e-71 8.12357e-71 2.27543e-70 6.32412e-70 1.74399e-69 4.7717e-69 1.29529e-68 3.48823e-68 9.31888e-68 2.46957e-67 6.49165e-67 1.69256e-66 4.37685e-66 1.12251e-65 2.85495e-65 7.20061e-65 1.80084e-64 4.46574e-64 1.09799e-63 2.67648e-63 6.46795e-63 1.54946e-62 3.67941e-62 8.66031e-62 2.02032e-61 4.67103e-61 1.07024e-60 2.42997e-60 5.46688e-60 1.21863e-59 2.69135e-59 5.88846e-59 1.27626e-58 2.74002e-58 5.82657e-58 1.22712e-57 2.55945e-57 5.28638e-57 1.08117e-56 2.18936e-56 4.38933e-56 8.71175e-56 1.71161e-55 3.32862e-55 6.40691e-55 1.22047e-54 2.30072e-54 4.29166e-54 7.92097e-54 1.4464e-53 2.61288e-53 4.66916e-53 8.25301e-53 1.4428e-52 2.49449e-52 4.26492e-52 7.21034e-52 1.20527e-51 1.99188e-51 3.2543e-51 5.25579e-51 8.39019e-51 1.32382e-50 2.06431e-50 3.18117e-50 4.84432e-50 7.28931e-50 1.08374e-49 1.59191e-49 2.31021e-49 3.31208e-49 4.69082e-49 6.56267e-49 9.06948e-49 1.23807e-48 1.6694e-48 2.22345e-48 2.92514e-48 3.80122e-48 4.87939e-48 6.18716e-48 7.75034e-48 9.59139e-48 1.17276e-47 1.41692e-47 1.69176e-47 1.99643e-47 2.32894e-47 2.68617e-47 3.06388e-47 3.45683e-47 3.85898e-47 4.26371e-47 4.66413e-47 5.05341e-47 5.4251e-47 5.77343e-47 6.09356e-47 6.38177e-47 6.63556e-47 6.85367e-47 7.03604e-47 7.18368e-47 7.29848e-47 7.38299e-47 7.44025e-47 7.47351e-47 7.4861e-47 7.48121e-47 7.46183e-47 7.43065e-47 7.39002e-47 7.34196e-47 7.28818e-47 7.2301e-47 7.16894e-47 7.10575e-47 7.04146e-47 6.97692e-47 6.91295e-47 6.85035e-47 6.78991e-47 6.73242e-47 6.67865e-47 6.62936e-47 6.58525e-47 6.54694e-47 6.51494e-47 6.48963e-47 6.47119e-47 6.45963e-47 6.45473e-47 6.456e-47 6.46277e-47 6.47409e-47 6.48887e-47 6.50582e-47 6.52359e-47 6.54078e-47 6.55606e-47 6.56823e-47 6.57625e-47 6.57939e-47 6.57719e-47 6.56951e-47 6.55656e-47 6.53883e-47 6.51703e-47 6.4921e-47 6.46505e-47 6.4369e-47 6.40864e-47 6.3811e-47 6.35498e-47 6.33072e-47 6.30859e-47 6.28865e-47 6.27081e-47 6.25486e-47 6.24055e-47 6.22764e-47 6.21597e-47 6.20546e-47 6.19624e-47 6.18856e-47 6.18288e-47 6.17981e-47 6.1801e-47 6.18459e-47 6.1942e-47 6.20984e-47 6.23239e-47 6.26261e-47 6.30116e-47 6.34847e-47 6.40474e-47 6.46991e-47 6.54354e-47 6.62483e-47 6.71252e-47 6.80487e-47 6.89959e-47 6.99384e-47 7.08421e-47 7.16674e-47 7.23699e-47 7.29015e-47 7.32119e-47 7.32508e-47 7.29701e-47 7.23264e-47 7.1284e-47 6.98175e-47 6.79139e-47 6.55741e-47 6.28146e-47 5.96667e-47 5.61762e-47 5.24015e-47 4.84109e-47 4.42795e-47 4.00858e-47 3.59076e-47 3.18189e-47 2.78862e-47 2.41667e-47 2.0706e-47 1.75371e-47 1.46808e-47 1.21458e-47 9.92979e-48 8.02163e-48 6.40271e-48 5.04919e-48 3.93387e-48 3.02792e-48 2.30244e-48 1.72961e-48 1.28357e-48 9.41046e-49 6.8159e-49 4.87716e-49 3.44789e-49 2.40822e-49 1.66192e-49 1.13322e-49 7.63529e-50 5.08356e-50 3.34475e-50 2.17488e-50 1.39768e-50 8.87791e-51 5.57402e-51 3.45947e-51 2.12258e-51 1.28754e-51 7.72202e-52 4.57935e-52 2.68542e-52 1.55735e-52 8.93224e-53 5.06716e-53 2.84335e-53 1.57829e-53 8.66671e-54 4.70773e-54 2.52866e-54 1.3407e-54 6.9675e-55 3.4477e-55 1.41334e-55 0 
0 3.06747e-72 9.90002e-72 2.87341e-71 8.18781e-71 2.31241e-70 6.47963e-70 1.8016e-69 4.97025e-69 1.36046e-68 3.69457e-68 9.95375e-68 2.66032e-67 7.05317e-67 1.85487e-66 4.83839e-66 1.25176e-65 3.21185e-65 8.17287e-65 2.06233e-64 5.16037e-64 1.28032e-63 3.14953e-63 7.68138e-63 1.85725e-62 4.45162e-62 1.05767e-61 2.49085e-61 5.81404e-61 1.34498e-60 3.08343e-60 7.00495e-60 1.57688e-59 3.51714e-59 7.77227e-59 1.70154e-58 3.69017e-58 7.92735e-58 1.68678e-57 3.55471e-57 7.41886e-57 1.53329e-56 3.13788e-56 6.35826e-56 1.27555e-55 2.53329e-55 4.98041e-55 9.69181e-55 1.86668e-54 3.55818e-54 6.71188e-54 1.25281e-53 2.31373e-53 4.22764e-53 7.64191e-53 1.36644e-52 2.41675e-52 4.22754e-52 7.31349e-52 1.25115e-51 2.11643e-51 3.53978e-51 5.85321e-51 9.56802e-51 1.54607e-50 2.46933e-50 3.89803e-50 6.08127e-50 9.37555e-50 1.42832e-49 2.15006e-49 3.19777e-49 4.69885e-49 6.82118e-49 9.78209e-49 1.38576e-48 1.93916e-48 2.68037e-48 3.65948e-48 4.93493e-48 6.57319e-48 8.64778e-48 1.12375e-47 1.44239e-47 1.82877e-47 2.29042e-47 2.83388e-47 3.46409e-47 4.18391e-47 4.99355e-47 5.89021e-47 6.86777e-47 7.9167e-47 9.0242e-47 1.01745e-46 1.13496e-46 1.25297e-46 1.36944e-46 1.48235e-46 1.58981e-46 1.69012e-46 1.78191e-46 1.8641e-46 1.93601e-46 1.99733e-46 2.04809e-46 2.08864e-46 2.11961e-46 2.14179e-46 2.15612e-46 2.1636e-46 2.16523e-46 2.16197e-46 2.15471e-46 2.14425e-46 2.13125e-46 2.11631e-46 2.09991e-46 2.08244e-46 2.06424e-46 2.04559e-46 2.02674e-46 2.00791e-46 1.98933e-46 1.9712e-46 1.95375e-46 1.93718e-46 1.92171e-46 1.90755e-46 1.89489e-46 1.8839e-46 1.87474e-46 1.86749e-46 1.86222e-46 1.85893e-46 1.85755e-46 1.85795e-46 1.85992e-46 1.8632e-46 1.86747e-46 1.87236e-46 1.87749e-46 1.88246e-46 1.88688e-46 1.8904e-46 1.89273e-46 1.89366e-46 1.89306e-46 1.89088e-46 1.88719e-46 1.88213e-46 1.87591e-46 1.86878e-46 1.86104e-46 1.853e-46 1.84492e-46 1.83705e-46 1.82958e-46 1.82265e-46 1.81634e-46 1.81064e-46 1.80555e-46 1.801e-46 1.79691e-46 1.79322e-46 1.78988e-46 1.78688e-46 1.78423e-46 1.78203e-46 1.7804e-46 1.77952e-46 1.7796e-46 1.7809e-46 1.78368e-46 1.78821e-46 1.79474e-46 1.80351e-46 1.8147e-46 1.82846e-46 1.84485e-46 1.86387e-46 1.8854e-46 1.90923e-46 1.93501e-46 1.96225e-46 1.99031e-46 2.01838e-46 2.04547e-46 2.07043e-46 2.09199e-46 2.10874e-46 2.1192e-46 2.12188e-46 2.11536e-46 2.09834e-46 2.06974e-46 2.02879e-46 1.97504e-46 1.9085e-46 1.8296e-46 1.73922e-46 1.63867e-46 1.52962e-46 1.41408e-46 1.29422e-46 1.17234e-46 1.05073e-46 9.31567e-47 8.1682e-47 7.08181e-47 6.07007e-47 5.14294e-47 4.30666e-47 3.56398e-47 2.91443e-47 2.35484e-47 1.87989e-47 1.48267e-47 1.15526e-47 8.89259e-48 6.76208e-48 5.07964e-48 3.76951e-48 2.76338e-48 2.00128e-48 1.43183e-48 1.01206e-48 7.06749e-49 4.87624e-49 3.32417e-49 2.23914e-49 1.49038e-49 9.80298e-50 6.37216e-50 4.09363e-50 2.59927e-50 1.63133e-50 1.01207e-50 6.207e-51 3.76349e-51 2.25615e-51 1.33734e-51 7.83874e-52 4.54373e-52 2.60479e-52 1.47693e-52 8.28334e-53 4.59556e-53 2.5222e-53 1.36933e-53 7.3512e-54 3.8956e-54 2.02349e-54 1.00083e-54 4.10146e-55 0 
0 8.64174e-72 2.78988e-71 8.10035e-71 2.30908e-70 6.52388e-70 1.82879e-69 5.08687e-69 1.40395e-68 3.84452e-68 1.04449e-67 2.81527e-67 7.52769e-67 1.99668e-66 5.25339e-66 1.37098e-65 3.54863e-65 9.10972e-65 2.31921e-64 5.85521e-64 1.46584e-63 3.63874e-63 8.95587e-63 2.18541e-62 5.28692e-62 1.26791e-61 3.01416e-61 7.10245e-61 1.65878e-60 3.83954e-60 8.80753e-60 2.00209e-59 4.50964e-59 1.00646e-58 2.22548e-58 4.87516e-58 1.05795e-57 2.27417e-57 4.84206e-57 1.02107e-56 2.13242e-56 4.41005e-56 9.03108e-56 1.83117e-55 3.67601e-55 7.30552e-55 1.43721e-54 2.79864e-54 5.39389e-54 1.02884e-53 1.94201e-53 3.62725e-53 6.70335e-53 1.22563e-52 2.21689e-52 3.96654e-52 7.01983e-52 1.22872e-51 2.12695e-51 3.64086e-51 6.1625e-51 1.03129e-50 1.70626e-50 2.7907e-50 4.51182e-50 7.20987e-50 1.1387e-49 1.77732e-49 2.74136e-49 4.17813e-49 6.29194e-49 9.36153e-49 1.37608e-48 1.99827e-48 2.8665e-48 4.06184e-48 5.6852e-48 7.85975e-48 1.07325e-47 1.44747e-47 1.92813e-47 2.53674e-47 3.29635e-47 4.23075e-47 5.36343e-47 6.71625e-47 8.30801e-47 1.01528e-46 1.22584e-46 1.46249e-46 1.72432e-46 2.00945e-46 2.31502e-46 2.63718e-46 2.97124e-46 3.31183e-46 3.65312e-46 3.98909e-46 4.31382e-46 4.62181e-46 4.90818e-46 5.16892e-46 5.40107e-46 5.60276e-46 5.77322e-46 5.91273e-46 6.02252e-46 6.10452e-46 6.16126e-46 6.19561e-46 6.21057e-46 6.20917e-46 6.19427e-46 6.16846e-46 6.13407e-46 6.09306e-46 6.04708e-46 5.99748e-46 5.94536e-46 5.89162e-46 5.837e-46 5.78216e-46 5.7277e-46 5.67416e-46 5.62212e-46 5.57215e-46 5.52481e-46 5.48068e-46 5.44034e-46 5.40432e-46 5.3731e-46 5.34707e-46 5.32652e-46 5.31161e-46 5.30233e-46 5.29848e-46 5.29968e-46 5.30537e-46 5.31479e-46 5.32702e-46 5.34103e-46 5.35572e-46 5.36993e-46 5.38259e-46 5.39269e-46 5.39942e-46 5.40215e-46 5.40051e-46 5.39441e-46 5.384e-46 5.36968e-46 5.35205e-46 5.33186e-46 5.30994e-46 5.28714e-46 5.26425e-46 5.24197e-46 5.22083e-46 5.20122e-46 5.18334e-46 5.16724e-46 5.15283e-46 5.13995e-46 5.12839e-46 5.11795e-46 5.10848e-46 5.09994e-46 5.09243e-46 5.08616e-46 5.08152e-46 5.07901e-46 5.07927e-46 5.083e-46 5.09098e-46 5.10398e-46 5.12274e-46 5.14796e-46 5.18019e-46 5.21986e-46 5.26721e-46 5.32224e-46 5.38469e-46 5.45398e-46 5.52917e-46 5.6089e-46 5.69135e-46 5.77424e-46 5.85476e-46 5.92966e-46 5.9952e-46 6.04734e-46 6.08177e-46 6.09414e-46 6.08025e-46 6.03626e-46 5.95894e-46 5.84588e-46 5.69574e-46 5.50835e-46 5.28486e-46 5.02771e-46 4.74059e-46 4.42833e-46 4.09663e-46 3.75184e-46 3.4006e-46 3.0496e-46 2.70518e-46 2.37313e-46 2.05842e-46 1.76506e-46 1.49601e-46 1.25315e-46 1.03734e-46 8.48485e-47 6.85709e-47 5.47497e-47 4.31865e-47 3.36529e-47 2.59056e-47 1.96994e-47 1.47978e-47 1.09807e-47 8.04916e-48 5.82865e-48 4.16957e-48 2.94668e-48 2.05734e-48 1.41915e-48 9.67206e-49 6.51325e-49 4.33398e-49 2.84977e-49 1.85179e-49 1.18921e-49 7.54806e-50 4.73537e-50 2.93658e-50 1.80024e-50 1.09106e-50 6.5377e-51 3.87343e-51 2.26929e-51 1.31475e-51 7.5333e-52 4.26924e-52 2.39315e-52 1.32701e-52 7.27919e-53 3.94983e-53 2.1193e-53 1.12247e-53 5.82744e-54 2.88097e-54 1.18025e-54 0 
0 2.41544e-71 7.80027e-71 2.26563e-70 6.46089e-70 1.82614e-69 5.12117e-69 1.42507e-68 3.93477e-68 1.07795e-67 2.92991e-67 7.90064e-67 2.1135e-66 5.60856e-66 1.47634e-65 3.85468e-65 9.98229e-65 2.56384e-64 6.53049e-64 1.64957e-63 4.13184e-63 1.02621e-62 2.52714e-62 6.17012e-62 1.4935e-61 3.58373e-61 8.52436e-61 2.00981e-60 4.69669e-60 1.08778e-59 2.49677e-59 5.67903e-59 1.27997e-58 2.85843e-58 6.32452e-58 1.38634e-57 3.01042e-57 6.4754e-57 1.37962e-56 2.9112e-56 6.08381e-56 1.25903e-55 2.58004e-55 5.23489e-55 1.0516e-54 2.09132e-54 4.11703e-54 8.02246e-54 1.54724e-53 2.95324e-53 5.57823e-53 1.0426e-52 1.92807e-52 3.5276e-52 6.38486e-52 1.14315e-51 2.02442e-51 3.54573e-51 6.14162e-51 1.05196e-50 1.78162e-50 2.98331e-50 4.93872e-50 8.08216e-50 1.30739e-49 2.09031e-49 3.30304e-49 5.15802e-49 7.95951e-49 1.21365e-48 1.82843e-48 2.72152e-48 4.0019e-48 5.81327e-48 8.34163e-48 1.18233e-47 1.65524e-47 2.28881e-47 3.12586e-47 4.2163e-47 5.61682e-47 7.39e-47 9.60276e-47 1.23241e-46 1.56217e-46 1.95588e-46 2.4189e-46 2.9552e-46 3.56689e-46 4.25379e-46 5.01305e-46 5.83898e-46 6.72294e-46 7.65352e-46 8.6168e-46 9.59695e-46 1.05769e-45 1.15389e-45 1.2466e-45 1.3342e-45 1.4153e-45 1.48877e-45 1.55377e-45 1.60981e-45 1.65671e-45 1.6946e-45 1.72389e-45 1.7452e-45 1.75929e-45 1.76705e-45 1.76937e-45 1.76716e-45 1.76125e-45 1.75242e-45 1.74132e-45 1.72853e-45 1.71451e-45 1.69963e-45 1.6842e-45 1.66844e-45 1.65256e-45 1.63672e-45 1.62107e-45 1.60576e-45 1.59093e-45 1.57673e-45 1.56331e-45 1.55082e-45 1.53941e-45 1.52925e-45 1.52044e-45 1.51311e-45 1.50733e-45 1.50314e-45 1.50054e-45 1.49948e-45 1.49984e-45 1.50147e-45 1.50415e-45 1.50763e-45 1.51161e-45 1.51578e-45 1.51981e-45 1.52341e-45 1.52629e-45 1.52821e-45 1.52901e-45 1.52857e-45 1.52687e-45 1.52396e-45 1.51994e-45 1.51498e-45 1.50931e-45 1.50315e-45 1.49674e-45 1.49031e-45 1.48405e-45 1.47811e-45 1.4726e-45 1.46758e-45 1.46307e-45 1.45902e-45 1.45541e-45 1.45216e-45 1.44923e-45 1.44657e-45 1.44416e-45 1.44204e-45 1.44028e-45 1.43897e-45 1.43826e-45 1.43834e-45 1.4394e-45 1.44167e-45 1.44538e-45 1.45073e-45 1.45793e-45 1.46714e-45 1.47849e-45 1.49207e-45 1.50788e-45 1.52586e-45 1.54587e-45 1.56764e-45 1.5908e-45 1.61485e-45 1.63915e-45 1.66292e-45 1.68521e-45 1.70496e-45 1.72102e-45 1.73214e-45 1.73705e-45 1.73452e-45 1.72344e-45 1.70282e-45 1.67195e-45 1.63041e-45 1.5781e-45 1.51532e-45 1.44275e-45 1.36141e-45 1.27268e-45 1.17818e-45 1.07974e-45 9.79269e-46 8.78704e-46 7.79887e-46 6.84501e-46 5.93998e-46 5.09554e-46 4.32043e-46 3.62026e-46 2.99764e-46 2.4525e-46 1.98241e-46 1.5831e-46 1.2489e-46 9.73289e-47 7.49265e-47 5.69774e-47 4.27996e-47 3.17577e-47 2.32774e-47 1.68539e-47 1.20548e-47 8.5178e-48 5.94584e-48 4.1005e-48 2.79394e-48 1.88094e-48 1.25122e-48 8.2246e-49 5.34252e-49 3.42968e-49 2.17603e-49 1.36461e-49 8.45891e-50 5.18337e-50 3.14003e-50 1.88066e-50 1.11371e-50 6.5216e-51 3.77649e-51 2.16276e-51 1.22503e-51 6.86334e-52 3.8037e-52 2.08535e-52 1.13093e-52 6.0647e-53 3.21036e-53 1.66582e-53 8.23165e-54 3.37114e-54 0 
0 6.69885e-71 2.16395e-70 6.28766e-70 1.79376e-69 5.07204e-69 1.42298e-68 3.96142e-68 1.09426e-67 2.99911e-67 8.15535e-67 2.20013e-66 5.88831e-66 1.56331e-65 4.1171e-65 1.07549e-64 2.78654e-64 7.16054e-64 1.82484e-63 4.61189e-63 1.1558e-62 2.87219e-62 7.07693e-62 1.72883e-61 4.18706e-61 1.00529e-60 2.39261e-60 5.64448e-60 1.31984e-59 3.05869e-59 7.02491e-59 1.59885e-58 3.60585e-58 8.05774e-58 1.784e-57 3.9131e-57 8.50282e-57 1.83017e-56 3.90189e-56 8.23913e-56 1.72298e-55 3.56812e-55 7.31688e-55 1.48562e-54 2.98642e-54 5.94323e-54 1.17082e-53 2.28305e-53 4.40623e-53 8.4161e-53 1.59078e-52 2.97529e-52 5.50597e-52 1.00806e-51 1.8258e-51 3.27112e-51 5.79671e-51 1.01595e-50 1.76088e-50 3.018e-50 5.11453e-50 8.56947e-50 1.41947e-49 2.32429e-49 3.76193e-49 6.01801e-49 9.51446e-49 1.48652e-48 2.295e-48 3.50097e-48 5.27666e-48 7.85717e-48 1.1558e-47 1.67952e-47 2.41075e-47 3.41789e-47 4.78617e-47 6.61951e-47 9.04185e-47 1.21976e-46 1.62505e-46 2.13815e-46 2.77834e-46 3.56547e-46 4.51903e-46 5.65702e-46 6.99468e-46 8.54315e-46 1.0308e-45 1.22882e-45 1.44749e-45 1.68509e-45 1.93904e-45 2.20598e-45 2.48181e-45 2.7619e-45 3.04125e-45 3.31475e-45 3.57745e-45 3.82473e-45 4.05263e-45 4.25795e-45 4.43838e-45 4.59261e-45 4.72029e-45 4.82194e-45 4.89888e-45 4.95302e-45 4.98674e-45 5.00265e-45 5.00346e-45 4.99183e-45 4.97022e-45 4.94086e-45 4.90566e-45 4.86622e-45 4.82385e-45 4.77957e-45 4.73419e-45 4.68831e-45 4.64246e-45 4.59703e-45 4.5524e-45 4.50892e-45 4.46696e-45 4.4269e-45 4.38912e-45 4.35404e-45 4.32206e-45 4.29357e-45 4.26893e-45 4.24844e-45 4.2323e-45 4.22063e-45 4.21341e-45 4.21049e-45 4.21158e-45 4.21621e-45 4.22379e-45 4.23359e-45 4.24481e-45 4.25656e-45 4.26794e-45 4.27808e-45 4.28621e-45 4.29167e-45 4.29396e-45 4.2928e-45 4.28811e-45 4.28002e-45 4.26883e-45 4.25503e-45 4.23921e-45 4.22203e-45 4.20416e-45 4.18622e-45 4.16876e-45 4.15222e-45 4.13688e-45 4.1229e-45 4.11032e-45 4.09907e-45 4.08901e-45 4.07997e-45 4.07179e-45 4.06436e-45 4.05765e-45 4.05172e-45 4.04677e-45 4.0431e-45 4.04113e-45 4.04136e-45 4.04437e-45 4.0508e-45 4.06127e-45 4.07642e-45 4.09682e-45 4.12296e-45 4.15523e-45 4.19388e-45 4.23897e-45 4.29038e-45 4.34771e-45 4.41029e-45 4.4771e-45 4.54677e-45 4.6175e-45 4.68709e-45 4.75292e-45 4.81197e-45 4.86091e-45 4.89618e-45 4.91414e-45 4.91122e-45 4.88411e-45 4.82998e-45 4.74666e-45 4.63281e-45 4.48809e-45 4.31321e-45 4.11002e-45 3.88139e-45 3.63117e-45 3.36398e-45 3.08501e-45 2.79975e-45 2.51373e-45 2.23228e-45 1.96025e-45 1.70186e-45 1.46054e-45 1.23884e-45 1.03841e-45 8.60076e-46 7.0384e-46 5.69048e-46 4.54501e-46 3.58601e-46 2.79488e-46 2.15168e-46 1.63626e-46 1.22908e-46 9.11942e-47 6.68366e-47 4.83873e-47 3.4604e-47 2.44464e-47 1.70613e-47 1.17635e-47 8.01314e-48 5.39309e-48 3.58642e-48 2.35668e-48 1.53031e-48 9.82029e-49 6.22824e-49 3.90419e-49 2.41908e-49 1.48168e-49 8.97175e-50 5.3709e-50 3.17906e-50 1.86064e-50 1.0769e-50 6.16408e-51 3.4896e-51 1.95403e-51 1.08234e-51 5.93053e-52 3.21445e-52 1.72281e-52 9.11463e-53 4.72694e-53 2.33471e-53 9.55815e-54 0 
0 1.84332e-70 5.9564e-70 1.73138e-69 4.94132e-69 1.39779e-68 3.92321e-68 1.09265e-67 3.01956e-67 8.27959e-67 2.25246e-66 6.07948e-66 1.62785e-65 4.32394e-65 1.1393e-64 2.97763e-64 7.71882e-64 1.98453e-63 5.06018e-63 1.27954e-62 3.20844e-62 7.97746e-62 1.96671e-61 4.80724e-61 1.16495e-60 2.79862e-60 6.66474e-60 1.57325e-59 3.68098e-59 8.53588e-59 1.96168e-58 4.46757e-58 1.00821e-57 2.25445e-57 4.99469e-57 1.09629e-56 2.38375e-56 5.13433e-56 1.09538e-55 2.31457e-55 4.84364e-55 1.00377e-54 2.05981e-54 4.18518e-54 8.4191e-54 1.67666e-53 3.30538e-53 6.44996e-53 1.24571e-52 2.38106e-52 4.50378e-52 8.42953e-52 1.56104e-51 2.86002e-51 5.18366e-51 9.29347e-51 1.648e-50 2.89026e-50 5.0128e-50 8.59711e-50 1.45786e-49 2.44418e-49 4.05108e-49 6.6373e-49 1.07488e-48 1.72046e-48 2.72149e-48 4.25419e-48 6.57115e-48 1.00288e-47 1.5122e-47 2.25267e-47 3.31498e-47 4.81877e-47 6.91895e-47 9.81231e-47 1.37439e-46 1.90125e-46 2.59744e-46 3.50444e-46 4.6693e-46 6.14384e-46 7.98336e-46 1.02446e-45 1.2983e-45 1.62499e-45 2.0088e-45 2.45283e-45 2.95855e-45 3.5255e-45 4.15093e-45 4.82972e-45 5.55426e-45 6.31465e-45 7.09895e-45 7.89368e-45 8.68437e-45 9.4563e-45 1.01952e-44 1.0888e-44 1.15233e-44 1.20924e-44 1.25888e-44 1.30092e-44 1.3353e-44 1.36221e-44 1.38206e-44 1.39546e-44 1.40312e-44 1.40582e-44 1.40435e-44 1.39951e-44 1.392e-44 1.38248e-44 1.37147e-44 1.35945e-44 1.34676e-44 1.33368e-44 1.32044e-44 1.30718e-44 1.29403e-44 1.28109e-44 1.26845e-44 1.25619e-44 1.24441e-44 1.23319e-44 1.22264e-44 1.21286e-44 1.20396e-44 1.19604e-44 1.1892e-44 1.18352e-44 1.17905e-44 1.17582e-44 1.17383e-44 1.17304e-44 1.17336e-44 1.17466e-44 1.17679e-44 1.17953e-44 1.18267e-44 1.18595e-44 1.18914e-44 1.19197e-44 1.19425e-44 1.19579e-44 1.19645e-44 1.19614e-44 1.19486e-44 1.19263e-44 1.18954e-44 1.18572e-44 1.18135e-44 1.17659e-44 1.17165e-44 1.16669e-44 1.16186e-44 1.15729e-44 1.15305e-44 1.14918e-44 1.14571e-44 1.1426e-44 1.13983e-44 1.13733e-44 1.13507e-44 1.13301e-44 1.13115e-44 1.12951e-44 1.12813e-44 1.12711e-44 1.12656e-44 1.12663e-44 1.12748e-44 1.12928e-44 1.13222e-44 1.13648e-44 1.14222e-44 1.14958e-44 1.15868e-44 1.16961e-44 1.18237e-44 1.19696e-44 1.21328e-44 1.23114e-44 1.25027e-44 1.2703e-44 1.29074e-44 1.31097e-44 1.33026e-44 1.34775e-44 1.36252e-44 1.37354e-44 1.37977e-44 1.38017e-44 1.37381e-44 1.35983e-44 1.3376e-44 1.30671e-44 1.26703e-44 1.21873e-44 1.1623e-44 1.09854e-44 1.02852e-44 9.53542e-45 8.75076e-45 7.9468e-45 7.13933e-45 6.34354e-45 5.5734e-45 4.84104e-45 4.15635e-45 3.52678e-45 2.95721e-45 2.45005e-45 2.00549e-45 1.62176e-45 1.29552e-45 1.0223e-45 7.96834e-46 6.13487e-46 4.66536e-46 3.50433e-46 2.59996e-46 1.90536e-46 1.37924e-46 9.86212e-47 6.96595e-47 4.86055e-47 3.35047e-47 2.2817e-47 1.53521e-47 1.0206e-47 6.70422e-48 4.35182e-48 2.7916e-48 1.76978e-48 1.10893e-48 6.86808e-49 4.20479e-49 2.54485e-49 1.52273e-49 9.00863e-50 5.2699e-50 3.04852e-50 1.74402e-50 9.86786e-51 5.52254e-51 3.05723e-51 1.67423e-51 9.06942e-52 4.85803e-52 2.56872e-52 1.33143e-52 6.57299e-53 2.69e-53 0 
0 5.03243e-70 1.62667e-69 4.73015e-69 1.35054e-68 3.82197e-68 1.07319e-67 2.99024e-67 8.26728e-67 2.26792e-66 6.17274e-66 1.66684e-65 4.46531e-65 1.18667e-64 3.1283e-64 8.18016e-64 2.12162e-63 5.45764e-63 1.39235e-62 3.52267e-62 8.83801e-62 2.19873e-61 5.42371e-61 1.32649e-60 3.21642e-60 7.73164e-60 1.84237e-59 4.35172e-59 1.01882e-58 2.36407e-58 5.43648e-58 1.23893e-57 2.79778e-57 6.26025e-57 1.38788e-56 3.04835e-56 6.63283e-56 1.42963e-55 3.05217e-55 6.4539e-55 1.35155e-54 2.80288e-54 5.75584e-54 1.17033e-53 2.356e-53 4.69539e-53 9.26324e-53 1.8089e-52 3.49617e-52 6.68744e-52 1.26585e-51 2.37094e-51 4.39382e-51 8.05579e-51 1.46111e-50 2.62137e-50 4.65165e-50 8.16364e-50 1.41684e-49 2.43153e-49 4.12595e-49 6.92179e-49 1.14796e-48 1.88195e-48 3.04952e-48 4.88384e-48 7.72968e-48 1.20893e-47 1.86828e-47 2.8527e-47 4.30342e-47 6.41333e-47 9.44143e-47 1.37294e-46 1.97196e-46 2.79741e-46 3.91928e-46 5.4229e-46 7.40997e-46 9.99884e-46 1.33236e-45 1.7532e-45 2.27813e-45 2.92325e-45 3.70428e-45 4.63563e-45 5.72931e-45 6.99382e-45 8.433e-45 1.0045e-44 1.18215e-44 1.37473e-44 1.58001e-44 1.7951e-44 2.01654e-44 2.24044e-44 2.46264e-44 2.67892e-44 2.88521e-44 3.07781e-44 3.25355e-44 3.40995e-44 3.54531e-44 3.65877e-44 3.75026e-44 3.82047e-44 3.87071e-44 3.90279e-44 3.91884e-44 3.92118e-44 3.91218e-44 3.89408e-44 3.86898e-44 3.8387e-44 3.80478e-44 3.7685e-44 3.73083e-44 3.69253e-44 3.65415e-44 3.6161e-44 3.57866e-44 3.54207e-44 3.50652e-44 3.47222e-44 3.43938e-44 3.4082e-44 3.37895e-44 3.3519e-44 3.32732e-44 3.30548e-44 3.28663e-44 3.27099e-44 3.2587e-44 3.24985e-44 3.24442e-44 3.24229e-44 3.24322e-44 3.24687e-44 3.25278e-44 3.2604e-44 3.2691e-44 3.27821e-44 3.28704e-44 3.29492e-44 3.30125e-44 3.30554e-44 3.30741e-44 3.30663e-44 3.30314e-44 3.29704e-44 3.28858e-44 3.27812e-44 3.26611e-44 3.25307e-44 3.23949e-44 3.22588e-44 3.21263e-44 3.20009e-44 3.18847e-44 3.17789e-44 3.16837e-44 3.15986e-44 3.15225e-44 3.1454e-44 3.1392e-44 3.13355e-44 3.12844e-44 3.12391e-44 3.12013e-44 3.11732e-44 3.11581e-44 3.11601e-44 3.11838e-44 3.1234e-44 3.1316e-44 3.14347e-44 3.15949e-44 3.18008e-44 3.20557e-44 3.2362e-44 3.27209e-44 3.3132e-44 3.35927e-44 3.40987e-44 3.46427e-44 3.52144e-44 3.58006e-44 3.63842e-44 3.69449e-44 3.74591e-44 3.79001e-44 3.82393e-44 3.84471e-44 3.84941e-44 3.83526e-44 3.79986e-44 3.7413e-44 3.65834e-44 3.55051e-44 3.41823e-44 3.2628e-44 3.08638e-44 2.89197e-44 2.68318e-44 2.46414e-44 2.23924e-44 2.01296e-44 1.78962e-44 1.57318e-44 1.36711e-44 1.17426e-44 9.96781e-45 8.36087e-45 6.92906e-45 5.67323e-45 4.58867e-45 3.66622e-45 2.89339e-45 2.25546e-45 1.73658e-45 1.32063e-45 9.91951e-46 7.35914e-46 5.39258e-46 3.90307e-46 2.79042e-46 1.9706e-46 1.37471e-46 9.47383e-47 6.45004e-47 4.33854e-47 2.88332e-47 1.89338e-47 1.22858e-47 7.878e-48 4.99238e-48 3.12685e-48 1.93574e-48 1.18455e-48 7.16584e-49 4.28563e-49 2.53414e-49 1.48167e-49 8.56657e-50 4.89818e-50 2.76992e-50 1.54932e-50 8.57202e-51 4.69158e-51 2.53999e-51 1.35975e-51 7.18561e-52 3.72243e-52 1.83677e-52 7.51431e-53 0 