# vtk DataFile Version 3.0
Gray-Scott Simulation Output
ASCII
DATASET STRUCTURED_POINTS
DIMENSIONS 256 256 1
SPACING 1.0 1.0 1.0
ORIGIN 0 0 0
POINT_DATA 65536
SCALARS u double
LOOKUP_TABLE default
0 0 0 0 0 0 0 0 0 0 0 0 0 0 0 0 0 0 0 0 0 0 0 0 0 0 0 0 0 0 0 0 0 0 0 0 0 0 0 0 0 0 0 0 0 0 0 0 0 0 0 0 0 0 0 0 0 0 0 0 0 0 0 0 0 0 0 0 0 0 0 0 0 0 0 0 0 0 0 0 0 0 0 0 0 0 0 0 0 0 0 0 0 0 0 0 0 0 0 0 0 0 0 0 0 0 0 0 0 0 0 0 0 0 0 0 0 0 0 0 0 0 0 0 0 0 0 0 0 0 0 0 0 0 0 0 0 0 0 0 0 0 0 0 0 0 0 0 0 0 0 0 0 0 0 0 0 0 0 0 0 0 0 0 0 0 0 0 0 0 0 0 0 0 0 0 0 0 0 0 0 0 0 0 0 0 0 0 0 0 0 0 0 0 0 0 0 0 0 0 0 0 0 0 0 0 0 0 0 0 0 0 0 0 0 0 0 0 0 0 0 0 0 0 0 0 0 0 0 0 0 0 0 0 0 0 0 0 0 0 0 0 0 0 0 0 0 0 0 0 0 0 0 0 0 0 
0 2.26882e-178 4.37924e-177 8.3395e-176 1.57075e-174 2.92589e-173 5.38949e-172 9.81588e-171 1.76748e-169 3.14613e-168 5.53535e-167 9.62518e-166 1.65393e-164 2.80812e-163 4.71034e-162 7.80496e-161 1.27736e-159 2.06455e-158 3.29491e-157 5.19172e-156 8.07539e-155 1.23976e-153 1.87832e-152 2.80796e-151 4.14129e-150 6.02464e-149 8.64383e-148 1.22289e-146 1.70569e-145 2.34512e-144 3.17762e-143 4.24259e-142 5.58041e-141 7.22972e-140 9.22375e-139 1.1586e-137 1.43253e-136 1.7431e-135 2.08683e-134 2.45752e-133 2.84608e-132 3.24059e-131 3.62675e-130 3.98851e-129 4.30905e-128 4.57201e-127 4.76274e-126 4.86966e-125 4.88535e-124 4.80732e-123 4.63847e-122 4.38688e-121 4.06526e-120 3.68984e-119 3.27901e-118 2.85176e-117 2.42625e-116 2.01845e-115 1.64119e-114 1.30361e-113 1.01104e-112 7.65229e-112 5.64912e-111 4.06525e-110 2.85004e-109 1.94536e-108 1.29195e-107 8.34246e-107 5.23392e-106 3.18798e-105 1.8837e-104 1.07882e-103 5.98332e-103 3.21058e-102 1.66512e-101 8.3382e-101 4.02702e-100 1.87358e-99 8.38681e-99 3.60735e-98 1.48881e-97 5.8872e-97 2.22697e-96 8.04509e-96 2.77073e-95 9.08019e-95 2.82603e-94 8.33567e-94 2.32514e-93 6.11967e-93 1.51628e-92 3.52858e-92 7.69483e-92 1.56908e-91 2.98613e-91 5.29598e-91 8.74551e-91 1.34481e-90 1.92829e-90 2.58622e-90 3.26161e-90 3.89821e-90 4.46127e-90 4.94869e-90 5.38531e-90 5.80313e-90 6.219e-90 6.62368e-90 6.98908e-90 7.28765e-90 7.50875e-90 7.66008e-90 7.75508e-90 7.79872e-90 7.78374e-90 7.69885e-90 7.54126e-90 7.32525e-90 7.08291e-90 6.85692e-90 6.68611e-90 6.5879e-90 6.54664e-90 6.51693e-90 6.44357e-90 6.28845e-90 6.05e-90 5.76482e-90 5.49171e-90 5.28659e-90 5.18009e-90 5.16671e-90 5.2084e-90 5.2503e-90 5.24263e-90 5.16147e-90 5.02053e-90 4.86794e-90 4.76813e-90 4.77656e-90 4.91942e-90 5.1875e-90 5.5448e-90 5.94382e-90 6.33737e-90 6.68229e-90 6.93846e-90 7.06937e-90 7.0472e-90 6.86057e-90 6.52109e-90 6.06617e-90 5.55676e-90 5.06875e-90 4.67816e-90 4.44265e-90 4.385e-90 4.48501e-90 4.68466e-90 4.90738e-90 5.08554e-90 5.18445e-90 5.21035e-90 5.1975e-90 5.18224e-90 5.18071e-90 5.18408e-90 5.17185e-90 5.12971e-90 5.05744e-90 4.96309e-90 4.85319e-90 4.73007e-90 4.59882e-90 4.47633e-90 4.39331e-90 4.38584e-90 4.48037e-90 4.67927e-90 4.95364e-90 5.24783e-90 5.49698e-90 5.6536e-90 5.71106e-90 5.70945e-90 5.71696e-90 5.79671e-90 5.9797e-90 6.25956e-90 6.60744e-90 6.99019e-90 7.37702e-90 7.73328e-90 8.01268e-90 8.15868e-90 8.11586e-90 7.84438e-90 7.33037e-90 6.59034e-90 5.67102e-90 4.64522e-90 3.60212e-90 2.63109e-90 1.80286e-90 1.15551e-90 6.91584e-91 3.86317e-91 2.01482e-91 9.82169e-92 4.48206e-92 1.91835e-92 7.71687e-93 2.92384e-93 1.04571e-93 3.53799e-94 1.13474e-94 3.45704e-95 1.00236e-95 2.77107e-96 7.31701e-97 1.84841e-97 4.47419e-98 1.03925e-98 2.31963e-99 4.9817e-100 1.0307e-100 2.05677e-101 3.96299e-102 7.38059e-103 1.3299e-103 2.32069e-104 3.92522e-105 6.44061e-106 1.02602e-106 1.58808e-107 2.39e-108 3.49969e-109 4.98943e-110 6.93003e-111 9.38297e-112 1.23913e-112 1.59698e-113 2.00964e-114 2.47052e-115 2.96839e-116 3.48752e-117 4.00835e-118 4.50874e-119 4.96549e-120 5.35621e-121 5.66119e-122 5.86502e-123 5.95796e-124 5.93614e-125 5.75166e-126 0 
0 4.37773e-177 8.44313e-176 1.60657e-174 3.02358e-173 5.62767e-172 1.0358e-170 1.885e-169 3.39153e-168 6.03219e-167 1.06048e-165 1.84257e-164 3.16367e-163 5.36723e-162 8.99595e-161 1.48945e-159 2.43574e-158 3.93373e-157 6.27315e-156 9.87679e-155 1.53508e-153 2.35489e-152 3.56507e-151 5.32543e-150 7.84811e-149 1.14085e-147 1.63557e-146 2.31217e-145 3.22256e-144 4.42726e-143 5.99436e-142 7.99728e-141 1.05111e-139 1.36074e-138 1.73474e-137 2.17738e-136 2.69016e-135 3.27093e-134 3.91303e-133 4.60469e-132 5.32877e-131 6.06293e-130 6.7804e-129 7.45123e-128 8.04414e-127 8.52877e-126 8.87808e-125 9.07079e-124 9.09339e-123 8.94168e-122 8.62138e-121 8.1479e-120 7.54514e-119 6.84347e-118 6.07717e-117 5.28158e-116 4.49035e-115 3.73298e-114 3.03314e-113 2.40757e-112 1.86594e-111 1.4113e-110 1.04114e-109 7.48722e-109 5.24552e-108 3.57802e-107 2.37464e-106 1.53234e-105 9.60727e-105 5.84792e-104 3.45313e-103 1.97637e-102 1.09542e-101 5.87416e-101 3.04461e-100 1.52366e-99 7.35409e-99 3.41941e-98 1.52972e-97 6.57575e-97 2.71232e-96 1.07191e-95 4.05245e-95 1.46316e-94 5.0364e-94 1.64964e-93 5.13155e-93 1.51285e-92 4.2179e-92 1.10963e-91 2.74815e-91 6.39267e-91 1.39353e-90 2.84061e-90 5.40434e-90 9.58216e-90 1.582e-89 2.43223e-89 3.48707e-89 4.67649e-89 5.89758e-89 7.04871e-89 8.06708e-89 8.94874e-89 9.73842e-89 1.04938e-88 1.12452e-88 1.1976e-88 1.26358e-88 1.31748e-88 1.35739e-88 1.38471e-88 1.40185e-88 1.40972e-88 1.407e-88 1.39166e-88 1.36321e-88 1.32422e-88 1.28048e-88 1.23969e-88 1.20887e-88 1.19113e-88 1.18366e-88 1.17826e-88 1.16497e-88 1.13692e-88 1.09382e-88 1.04229e-88 9.92938e-89 9.55863e-89 9.36596e-89 9.34145e-89 9.41647e-89 9.49201e-89 9.47822e-89 9.33197e-89 9.07798e-89 8.8031e-89 8.62353e-89 8.63931e-89 8.8977e-89 9.3821e-89 1.00276e-88 1.07484e-88 1.14593e-88 1.20823e-88 1.25449e-88 1.27811e-88 1.27407e-88 1.24032e-88 1.17896e-88 1.09675e-88 1.0047e-88 9.16516e-89 8.45929e-89 8.03352e-89 7.92906e-89 8.10946e-89 8.47001e-89 8.87245e-89 9.19458e-89 9.37369e-89 9.42089e-89 9.39793e-89 9.37045e-89 9.36769e-89 9.37388e-89 9.35204e-89 9.27633e-89 9.14616e-89 8.97595e-89 8.7774e-89 8.55474e-89 8.31722e-89 8.09544e-89 7.94494e-89 7.93094e-89 8.10122e-89 8.46007e-89 8.95532e-89 9.48645e-89 9.93637e-89 1.02193e-88 1.03234e-88 1.03208e-88 1.03346e-88 1.04789e-88 1.08096e-88 1.13152e-88 1.19438e-88 1.26355e-88 1.33345e-88 1.39781e-88 1.44829e-88 1.47465e-88 1.46691e-88 1.41786e-88 1.32499e-88 1.19128e-88 1.02516e-88 8.39784e-89 6.51273e-89 4.75772e-89 3.2606e-89 2.09025e-89 1.25135e-89 6.99207e-90 3.64787e-90 1.77888e-90 8.121e-91 3.47731e-91 1.39943e-91 5.30477e-92 1.89819e-92 6.42546e-93 2.06191e-93 6.28513e-94 1.82336e-94 5.04362e-95 1.33254e-95 3.3682e-96 8.15779e-97 1.89601e-97 4.23454e-98 9.09982e-99 1.8839e-99 3.76174e-100 7.25274e-101 1.35161e-101 2.43704e-102 4.25542e-103 7.20238e-104 1.18257e-104 1.88515e-105 2.91982e-106 4.3972e-107 6.44321e-108 9.19223e-109 1.27762e-109 1.73105e-110 2.28763e-111 2.95034e-112 3.7153e-113 4.57057e-114 5.49553e-115 6.46118e-116 7.4314e-117 8.36507e-118 9.21908e-119 9.95166e-120 1.05259e-120 1.09128e-121 1.10937e-122 1.10611e-123 1.07251e-124 0 
0 8.33365e-176 1.606e-174 3.05348e-173 5.7421e-172 1.0679e-170 1.96396e-169 3.57129e-168 6.42044e-167 1.14104e-165 2.0044e-164 3.47988e-163 5.97021e-162 1.01206e-160 1.69497e-159 2.80415e-158 4.58212e-157 7.39436e-156 1.17827e-154 1.85368e-153 2.87882e-152 4.41282e-151 6.67539e-150 9.96388e-149 1.46725e-147 2.13123e-146 3.0531e-145 4.31278e-144 6.00628e-143 8.24532e-142 1.11554e-140 1.48714e-139 1.95312e-138 2.52655e-137 3.21854e-136 4.03673e-135 4.98365e-134 6.05501e-133 7.23821e-132 8.51126e-131 9.8423e-130 1.119e-128 1.25049e-127 1.37319e-126 1.48137e-125 1.56946e-124 1.63254e-123 1.66676e-122 1.6697e-121 1.64065e-120 1.58073e-119 1.49284e-118 1.38141e-117 1.25205e-116 1.11105e-115 9.64916e-115 8.19781e-114 6.81032e-113 5.52966e-112 4.38612e-111 3.39701e-110 2.56755e-109 1.89283e-108 1.36026e-107 9.52344e-107 6.49163e-106 4.30542e-105 2.7764e-104 1.73955e-103 1.05816e-102 6.24422e-102 3.5715e-101 1.97826e-100 1.06016e-99 5.49138e-99 2.7464e-98 1.32476e-97 6.15589e-97 2.75227e-96 1.1824e-95 4.87421e-95 1.92518e-94 7.27415e-94 2.62492e-93 9.03041e-93 2.95629e-92 9.1914e-92 2.70841e-91 7.54756e-91 1.98467e-90 4.91318e-90 1.14243e-89 2.48942e-89 5.07276e-89 9.64809e-89 1.7102e-88 2.82287e-88 4.33925e-88 6.22036e-88 8.34147e-88 1.05192e-87 1.25725e-87 1.43894e-87 1.59625e-87 1.73713e-87 1.87184e-87 2.00576e-87 2.13596e-87 2.25345e-87 2.34944e-87 2.42051e-87 2.46914e-87 2.49965e-87 2.51363e-87 2.50877e-87 2.48144e-87 2.43077e-87 2.36134e-87 2.28347e-87 2.21087e-87 2.15599e-87 2.12441e-87 2.11107e-87 2.10138e-87 2.07763e-87 2.02758e-87 1.95074e-87 1.8589e-87 1.77093e-87 1.70483e-87 1.67045e-87 1.66603e-87 1.67934e-87 1.69277e-87 1.69033e-87 1.66433e-87 1.61919e-87 1.57034e-87 1.53848e-87 1.54139e-87 1.58749e-87 1.67383e-87 1.78885e-87 1.91729e-87 2.04397e-87 2.15497e-87 2.23736e-87 2.2794e-87 2.27214e-87 2.21193e-87 2.10253e-87 1.95598e-87 1.79191e-87 1.63473e-87 1.5089e-87 1.43297e-87 1.4143e-87 1.4464e-87 1.51063e-87 1.58235e-87 1.63981e-87 1.6718e-87 1.68029e-87 1.67624e-87 1.67136e-87 1.67087e-87 1.67199e-87 1.66815e-87 1.65473e-87 1.63161e-87 1.60132e-87 1.56594e-87 1.52621e-87 1.48381e-87 1.4442e-87 1.41729e-87 1.4147e-87 1.44495e-87 1.50881e-87 1.59699e-87 1.69157e-87 1.77172e-87 1.82214e-87 1.84072e-87 1.84032e-87 1.84284e-87 1.86859e-87 1.92753e-87 2.01765e-87 2.12969e-87 2.25298e-87 2.37756e-87 2.49227e-87 2.58221e-87 2.62919e-87 2.61538e-87 2.52796e-87 2.36244e-87 2.12412e-87 1.82801e-87 1.49758e-87 1.16153e-87 8.48639e-88 5.81695e-88 3.72982e-88 2.23346e-88 1.24833e-88 6.51485e-89 3.17811e-89 1.45145e-89 6.21756e-90 2.50334e-90 9.49381e-91 3.39881e-91 1.1511e-91 3.69578e-92 1.12716e-92 3.27177e-93 9.0552e-94 2.39379e-94 6.05423e-95 1.46721e-95 3.41212e-96 7.62526e-97 1.63965e-97 3.39664e-98 6.78664e-99 1.30932e-99 2.4416e-100 4.40523e-101 7.69722e-102 1.30363e-102 2.14188e-103 3.41667e-104 5.29551e-105 7.98034e-106 1.17016e-106 1.67055e-107 2.3235e-108 3.15027e-109 4.16608e-110 5.37672e-111 6.77555e-112 8.34116e-113 1.00363e-113 1.18082e-114 1.3591e-115 1.53096e-116 1.68847e-117 1.82395e-118 1.93059e-119 2.003e-120 2.0377e-121 2.0332e-122 1.97284e-123 0 
0 1.56908e-174 3.02141e-173 5.74001e-172 1.07856e-170 2.00428e-169 3.68311e-168 6.69213e-167 1.20215e-165 2.13478e-164 3.74708e-163 6.50027e-162 1.11433e-160 1.88752e-159 3.15869e-158 5.22163e-157 8.52574e-156 1.37476e-154 2.18893e-153 3.44102e-152 5.33984e-151 8.17889e-150 1.23629e-148 1.84389e-147 2.71316e-146 3.93795e-145 5.63697e-144 7.95664e-143 1.10725e-141 1.51886e-140 2.05335e-139 2.73528e-138 3.58963e-137 4.64002e-136 5.9064e-135 7.40231e-134 9.13185e-133 1.10866e-131 1.32432e-130 1.55608e-129 1.79809e-128 2.04278e-127 2.28113e-126 2.50312e-125 2.69832e-124 2.85668e-123 2.96933e-122 3.02936e-121 3.03249e-120 2.97757e-119 2.86676e-118 2.70542e-117 2.50168e-116 2.26579e-115 2.00921e-114 1.7437e-113 1.48038e-112 1.22896e-111 9.97155e-111 7.90391e-110 6.11726e-109 4.6204e-108 3.40387e-107 2.44448e-106 1.71026e-105 1.16501e-104 7.72147e-104 4.97595e-103 3.11561e-102 1.89397e-101 1.1169e-100 6.38418e-100 3.53394e-99 1.89264e-98 9.7973e-98 4.89685e-97 2.36059e-96 1.09625e-95 4.89834e-95 2.10312e-94 8.66464e-94 3.42033e-93 1.29162e-92 4.65831e-92 1.60171e-91 5.24078e-91 1.62858e-90 4.79652e-90 1.33602e-89 3.51153e-89 8.6893e-89 2.01964e-88 4.39929e-88 8.96149e-88 1.7039e-87 3.0195e-87 4.98293e-87 7.65831e-87 1.09769e-86 1.47189e-86 1.85611e-86 2.21843e-86 2.53908e-86 2.81677e-86 3.06541e-86 3.30303e-86 3.53915e-86 3.76859e-86 3.97559e-86 4.14467e-86 4.26986e-86 4.35552e-86 4.40923e-86 4.43381e-86 4.4252e-86 4.37702e-86 4.28775e-86 4.16546e-86 4.02833e-86 3.90049e-86 3.80385e-86 3.7482e-86 3.72464e-86 3.70746e-86 3.66546e-86 3.57713e-86 3.44163e-86 3.27968e-86 3.12458e-86 3.008e-86 2.9473e-86 2.9394e-86 2.96278e-86 2.98641e-86 2.98213e-86 2.93642e-86 2.85704e-86 2.77118e-86 2.71524e-86 2.72056e-86 2.80192e-86 2.95415e-86 3.15691e-86 3.38332e-86 3.6066e-86 3.80224e-86 3.94742e-86 4.02143e-86 4.00852e-86 3.90227e-86 3.70931e-86 3.45089e-86 3.16158e-86 2.88443e-86 2.66253e-86 2.5286e-86 2.49558e-86 2.55208e-86 2.66526e-86 2.79174e-86 2.89312e-86 2.94965e-86 2.96473e-86 2.95768e-86 2.9491e-86 2.94825e-86 2.95025e-86 2.94357e-86 2.92004e-86 2.87941e-86 2.8261e-86 2.76372e-86 2.69361e-86 2.61873e-86 2.54874e-86 2.50112e-86 2.49638e-86 2.54955e-86 2.66197e-86 2.81728e-86 2.98391e-86 3.12513e-86 3.21402e-86 3.24684e-86 3.24624e-86 3.25079e-86 3.29623e-86 3.40016e-86 3.55906e-86 3.75662e-86 3.974e-86 4.19367e-86 4.3959e-86 4.55443e-86 4.63722e-86 4.61286e-86 4.45873e-86 4.16691e-86 3.7467e-86 3.22459e-86 2.64191e-86 2.04928e-86 1.49745e-86 1.02659e-86 6.58385e-87 3.94346e-87 2.20472e-87 1.15099e-87 5.61683e-88 2.56622e-88 1.09975e-88 4.42982e-89 1.68077e-89 6.02014e-90 2.03991e-90 6.55288e-91 1.9996e-91 5.80739e-92 1.6082e-92 4.25379e-93 1.07647e-93 2.61033e-94 6.07418e-95 1.35826e-95 2.92245e-96 6.05782e-97 1.21114e-97 2.3381e-98 4.36286e-99 7.87676e-100 1.3772e-100 2.33401e-101 3.83736e-102 6.12533e-103 9.50004e-104 1.43263e-104 2.10209e-105 3.00306e-106 4.17969e-107 5.67088e-108 7.50465e-109 9.69221e-110 1.22223e-110 1.50571e-111 1.81299e-112 2.13459e-113 2.45862e-114 2.77148e-115 3.05881e-116 3.30663e-117 3.50248e-118 3.63648e-119 3.70216e-120 3.69667e-121 3.5895e-122 0 
0 2.92169e-173 5.62153e-172 1.06712e-170 2.00354e-169 3.72022e-168 6.83094e-167 1.24018e-165 2.22607e-164 3.94992e-163 6.92768e-162 1.20084e-160 2.05697e-159 3.48148e-158 5.82155e-157 9.61609e-156 1.56887e-154 2.5278e-153 4.0217e-152 6.31724e-151 9.79564e-150 1.49921e-148 2.2644e-147 3.37469e-146 4.96182e-145 7.19618e-144 1.02931e-142 1.45177e-141 2.01875e-140 2.76709e-139 3.738e-138 4.97563e-137 6.52481e-136 8.42771e-135 1.07198e-133 1.34247e-132 1.65489e-131 2.00764e-130 2.39637e-129 2.81365e-128 3.24883e-127 3.68822e-126 4.11553e-125 4.5127e-124 4.86105e-123 5.14257e-122 5.34146e-121 5.44548e-120 5.44715e-119 5.34464e-118 5.14203e-117 4.84916e-116 4.48077e-115 4.05537e-114 3.59359e-113 3.1165e-112 2.64401e-111 2.19342e-110 1.77846e-109 1.40871e-108 1.08952e-107 8.22357e-107 6.05419e-106 4.34485e-105 3.03778e-104 2.0679e-103 1.36965e-102 8.82059e-102 5.51923e-101 3.35291e-100 1.97598e-99 1.12874e-98 6.24407e-98 3.34197e-97 1.72889e-96 8.63591e-96 4.1605e-95 1.93095e-94 8.62282e-94 3.70005e-93 1.5235e-92 6.0105e-92 2.26847e-91 8.1769e-91 2.81004e-90 9.18961e-90 2.85423e-89 8.40222e-89 2.33925e-88 6.14561e-88 1.52008e-87 3.5317e-87 7.69007e-87 1.56596e-86 2.97656e-86 5.2734e-86 8.70054e-86 1.33697e-85 1.91609e-85 2.56909e-85 3.23962e-85 3.87204e-85 4.43185e-85 4.91668e-85 5.35075e-85 5.76538e-85 6.17715e-85 6.5771e-85 6.93782e-85 7.23242e-85 7.45054e-85 7.59977e-85 7.6933e-85 7.73605e-85 7.72096e-85 7.63696e-85 7.48139e-85 7.26833e-85 7.02945e-85 6.80678e-85 6.63846e-85 6.54149e-85 6.50032e-85 6.47018e-85 6.39674e-85 6.24256e-85 6.00617e-85 5.72372e-85 5.45321e-85 5.24982e-85 5.14383e-85 5.12987e-85 5.17048e-85 5.21159e-85 5.20417e-85 5.12468e-85 4.98662e-85 4.83735e-85 4.74023e-85 4.74981e-85 4.89185e-85 5.15735e-85 5.5109e-85 5.90566e-85 6.29495e-85 6.63601e-85 6.88904e-85 7.01793e-85 6.99521e-85 6.80974e-85 6.4731e-85 6.02235e-85 5.51777e-85 5.03438e-85 4.64731e-85 4.4136e-85 4.35585e-85 4.45422e-85 4.65152e-85 4.8721e-85 5.04905e-85 5.14786e-85 5.17437e-85 5.16222e-85 5.14732e-85 5.14584e-85 5.1494e-85 5.13789e-85 5.09711e-85 5.0265e-85 4.93367e-85 4.8249e-85 4.70251e-85 4.57169e-85 4.44936e-85 4.36601e-85 4.35743e-85 4.44984e-85 4.6456e-85 4.91616e-85 5.20652e-85 5.45266e-85 5.60768e-85 5.66503e-85 5.66416e-85 5.67226e-85 5.75161e-85 5.93289e-85 6.21002e-85 6.55457e-85 6.93373e-85 7.31684e-85 7.66949e-85 7.9459e-85 8.0902e-85 8.04768e-85 7.77889e-85 7.26996e-85 6.5371e-85 5.62647e-85 4.61012e-85 3.57634e-85 2.61364e-85 1.79211e-85 1.14957e-85 6.88718e-86 3.8516e-86 2.0114e-86 9.81914e-87 4.48791e-87 1.92408e-87 7.75369e-88 2.94329e-88 1.05473e-88 3.57572e-89 1.14924e-89 3.50874e-90 1.01959e-90 2.82507e-91 7.47675e-92 1.89318e-92 4.59345e-93 1.06953e-93 2.39304e-94 5.15207e-95 1.06861e-95 2.13783e-96 4.12968e-97 7.71085e-98 1.39302e-98 2.43719e-99 4.13315e-100 6.79982e-101 1.08614e-101 1.68566e-102 2.54373e-103 3.73493e-104 5.33939e-105 7.4365e-106 1.00966e-106 1.33707e-107 1.72802e-108 2.18063e-109 2.68828e-110 3.23917e-111 3.81645e-112 4.3989e-113 4.9622e-114 5.48057e-115 5.92885e-116 6.28453e-117 6.52968e-118 6.65243e-119 6.64739e-120 6.4593e-121 0 
0 5.3797e-172 1.03427e-170 1.96177e-169 3.68034e-168 6.82834e-167 1.2528e-165 2.27272e-164 4.0762e-163 7.2271e-162 1.26655e-160 2.1937e-159 3.75474e-158 6.35003e-157 1.06099e-155 1.75119e-154 2.85484e-153 4.59622e-152 7.30687e-151 1.14687e-149 1.77698e-148 2.71755e-147 4.1014e-146 6.10773e-145 8.97332e-144 1.30041e-142 1.85863e-141 2.61947e-140 3.63972e-139 4.98515e-138 6.72922e-137 8.95047e-136 1.17284e-134 1.51374e-133 1.92398e-132 2.40765e-131 2.96575e-130 3.59524e-129 4.28817e-128 5.03113e-127 5.80499e-126 6.58522e-125 7.34275e-124 8.04547e-123 8.66017e-122 9.15504e-121 9.50219e-120 9.68019e-119 9.67617e-118 9.48723e-117 9.12103e-116 8.59536e-115 7.93672e-114 7.17811e-113 6.35624e-112 5.50849e-111 4.67007e-110 3.8715e-109 3.13689e-108 2.483e-107 1.91907e-106 1.4475e-105 1.06492e-104 7.6373e-104 5.33616e-103 3.63004e-102 2.40271e-101 1.54633e-100 9.66933e-100 5.87025e-99 3.45729e-98 1.97363e-97 1.0911e-96 5.83615e-96 3.0173e-95 1.50623e-94 7.2521e-94 3.36378e-93 1.50123e-92 6.43798e-92 2.64931e-91 1.04461e-90 3.94036e-90 1.41956e-89 4.87581e-89 1.5937e-88 4.94743e-88 1.45571e-87 4.05091e-87 1.06377e-86 2.63006e-86 6.10815e-86 1.32953e-85 2.70647e-85 5.14289e-85 9.10901e-85 1.50257e-84 2.30853e-84 3.3081e-84 4.43517e-84 5.5926e-84 6.68441e-84 7.65105e-84 8.48831e-84 9.23778e-84 9.95337e-84 1.06636e-83 1.13531e-83 1.19748e-83 1.24825e-83 1.28584e-83 1.31155e-83 1.32766e-83 1.33501e-83 1.33239e-83 1.31791e-83 1.2911e-83 1.25438e-83 1.21323e-83 1.17487e-83 1.14587e-83 1.12916e-83 1.12205e-83 1.11682e-83 1.10412e-83 1.0775e-83 1.03671e-83 9.87988e-84 9.41324e-84 9.0623e-84 8.87926e-84 8.85487e-84 8.92462e-84 8.99538e-84 8.98267e-84 8.84594e-84 8.60847e-84 8.3518e-84 8.18503e-84 8.20208e-84 8.44735e-84 8.90533e-84 9.51504e-84 1.01958e-83 1.08671e-83 1.14551e-83 1.18913e-83 1.21133e-83 1.20738e-83 1.17536e-83 1.11727e-83 1.03951e-83 9.52464e-84 8.69077e-84 8.023e-84 7.61965e-84 7.51975e-84 7.68915e-84 8.02929e-84 8.4098e-84 8.71527e-84 8.88608e-84 8.9322e-84 8.91149e-84 8.88588e-84 8.88335e-84 8.88958e-84 8.87002e-84 8.80011e-84 8.67873e-84 8.51888e-84 8.33127e-84 8.11995e-84 7.89392e-84 7.68242e-84 7.53811e-84 7.52277e-84 7.6816e-84 8.01872e-84 8.4849e-84 8.98533e-84 9.40965e-84 9.67703e-84 9.77615e-84 9.77497e-84 9.78923e-84 9.92625e-84 1.0239e-83 1.0717e-83 1.13114e-83 1.19654e-83 1.26263e-83 1.32345e-83 1.37112e-83 1.39599e-83 1.38865e-83 1.34229e-83 1.25451e-83 1.12809e-83 9.71001e-84 7.95662e-84 6.17304e-84 4.51194e-84 3.09424e-84 1.98525e-84 1.18967e-84 6.655e-85 3.47651e-85 1.69774e-85 7.76264e-86 3.32942e-86 1.34228e-86 5.09761e-87 1.82761e-87 6.19901e-88 1.99339e-88 6.08926e-89 1.77042e-89 4.90817e-90 1.29972e-90 3.2929e-91 7.99431e-92 1.86248e-92 4.16978e-93 8.98277e-94 1.86431e-94 3.732e-95 7.21371e-96 1.34779e-96 2.43645e-97 4.2655e-98 7.23844e-99 1.19164e-99 1.90467e-100 2.95799e-101 4.46671e-102 6.56286e-103 9.38852e-104 1.30849e-104 1.77776e-105 2.35588e-106 3.04683e-107 3.84755e-108 4.74657e-109 5.72327e-110 6.74801e-111 7.78338e-112 8.7863e-113 9.71107e-114 1.05129e-114 1.11516e-115 1.15949e-116 1.18214e-117 1.1821e-118 1.14948e-119 0 
0 9.79424e-171 1.8815e-169 3.56592e-168 6.68449e-167 1.23923e-165 2.27184e-164 4.1181e-163 7.38014e-162 1.30747e-160 2.28954e-159 3.96244e-158 6.77681e-157 1.1452e-155 1.91197e-154 3.15328e-153 5.13658e-152 8.26335e-151 1.31265e-149 2.05871e-148 3.18735e-147 4.87068e-146 7.34532e-145 1.09301e-143 1.6046e-142 2.3236e-141 3.3185e-140 4.67339e-139 6.48868e-138 8.8805e-137 1.19783e-135 1.59202e-134 2.08455e-133 2.68844e-132 3.41448e-131 4.26965e-130 5.25544e-129 6.36617e-128 7.58753e-127 8.89553e-126 1.02562e-124 1.16261e-123 1.2954e-122 1.41834e-121 1.52559e-120 1.61159e-119 1.67149e-118 1.70157e-117 1.69963e-116 1.66525e-115 1.59982e-114 1.50655e-113 1.39011e-112 1.25635e-111 1.11172e-110 9.62769e-110 8.15659e-109 6.75712e-108 5.47118e-107 4.32771e-106 3.34252e-105 2.51944e-104 1.85228e-103 1.32751e-102 9.26903e-102 6.30124e-101 4.16801e-100 2.68066e-99 1.67514e-98 1.01632e-97 5.98176e-97 3.41257e-96 1.88541e-95 1.00785e-94 5.20735e-94 2.5979e-93 1.25006e-92 5.79474e-92 2.58461e-91 1.10776e-90 4.55595e-90 1.79538e-89 6.76856e-89 2.43714e-88 8.36648e-88 2.73324e-87 8.48076e-87 2.49413e-86 6.9374e-86 1.82096e-85 4.50025e-85 1.04474e-84 2.27321e-84 4.62595e-84 8.78774e-84 1.55608e-83 2.56627e-83 3.94213e-83 5.64838e-83 7.57225e-83 9.54811e-83 1.14122e-82 1.30629e-82 1.44929e-82 1.57726e-82 1.6994e-82 1.82055e-82 1.9381e-82 2.04407e-82 2.13059e-82 2.19464e-82 2.23844e-82 2.26588e-82 2.27839e-82 2.27391e-82 2.2492e-82 2.2035e-82 2.14094e-82 2.07082e-82 2.00547e-82 1.95607e-82 1.92759e-82 1.91544e-82 1.90647e-82 1.88474e-82 1.83929e-82 1.7697e-82 1.68658e-82 1.60697e-82 1.54709e-82 1.51583e-82 1.51162e-82 1.52346e-82 1.53551e-82 1.53336e-82 1.5101e-82 1.4697e-82 1.42606e-82 1.39774e-82 1.40074e-82 1.44262e-82 1.52075e-82 1.62473e-82 1.74083e-82 1.85531e-82 1.95558e-82 2.02993e-82 2.06774e-82 2.06094e-82 2.00627e-82 1.90714e-82 1.77447e-82 1.62598e-82 1.48373e-82 1.36979e-82 1.30095e-82 1.28386e-82 1.31271e-82 1.3707e-82 1.43562e-82 1.48777e-82 1.51697e-82 1.5249e-82 1.52141e-82 1.51706e-82 1.51663e-82 1.51772e-82 1.51443e-82 1.50258e-82 1.48194e-82 1.45472e-82 1.42272e-82 1.38664e-82 1.34801e-82 1.31185e-82 1.28714e-82 1.28442e-82 1.31142e-82 1.36883e-82 1.44827e-82 1.53356e-82 1.6059e-82 1.65151e-82 1.66845e-82 1.6683e-82 1.67078e-82 1.69419e-82 1.74754e-82 1.82909e-82 1.93048e-82 2.04207e-82 2.1548e-82 2.25854e-82 2.33982e-82 2.38224e-82 2.36971e-82 2.29062e-82 2.14088e-82 1.92522e-82 1.65723e-82 1.35807e-82 1.05375e-82 7.70296e-83 5.28348e-83 3.39054e-83 2.03229e-83 1.13718e-83 5.9424e-84 2.90297e-84 1.32784e-84 5.69747e-85 2.29798e-85 8.73107e-86 3.13178e-86 1.06278e-86 3.4193e-87 1.04505e-87 3.04007e-88 8.4327e-89 2.2343e-89 5.66396e-90 1.37586e-90 3.20734e-91 7.18499e-92 1.54877e-92 3.21634e-93 6.44252e-94 1.24608e-94 2.32961e-95 4.21402e-96 7.38228e-97 1.25357e-97 2.06507e-98 3.30289e-99 5.13286e-100 7.75605e-101 1.14035e-101 1.63243e-102 2.27669e-103 3.09531e-104 4.10471e-105 5.31223e-106 6.71297e-107 8.28729e-108 9.99954e-109 1.17982e-109 1.36181e-110 1.53837e-111 1.7015e-112 1.8433e-113 1.95668e-114 2.03594e-115 2.07721e-116 2.07864e-117 2.02271e-118 0 
0 1.76288e-169 3.38387e-168 6.40822e-167 1.2003e-165 2.22347e-164 4.07299e-163 7.3772e-162 1.32105e-160 2.33853e-159 4.09185e-158 7.07611e-157 1.20925e-155 2.04191e-154 3.4064e-153 5.61359e-152 9.13723e-151 1.46879e-149 2.33141e-148 3.65366e-147 5.65234e-146 8.63086e-145 1.30059e-143 1.93385e-142 2.83682e-141 4.10484e-140 5.85795e-139 8.24338e-138 1.14367e-136 1.56406e-135 2.10806e-134 2.79968e-133 3.66308e-132 4.72072e-131 5.99111e-130 7.48601e-129 9.20755e-128 1.11453e-126 1.32737e-125 1.55504e-124 1.79158e-123 2.02939e-122 2.25952e-121 2.47214e-120 2.65714e-119 2.8049e-118 2.90704e-117 2.95722e-116 2.95173e-115 2.88994e-114 2.77442e-113 2.6108e-112 2.40732e-111 2.17414e-110 1.92249e-109 1.66375e-108 1.40855e-107 1.16607e-106 9.43501e-106 7.45796e-105 5.75624e-104 4.33583e-103 3.18553e-102 2.28149e-101 1.59194e-100 1.0815e-99 7.14897e-99 4.59485e-98 2.86945e-97 1.73979e-96 1.02333e-95 5.83435e-95 3.22139e-94 1.72091e-93 8.88615e-93 4.43051e-92 2.13059e-91 9.8706e-91 4.39997e-90 1.88472e-89 7.747e-89 3.05117e-88 1.14966e-87 4.13731e-87 1.41956e-86 4.63519e-86 1.4375e-85 4.22557e-85 1.1748e-84 3.08231e-84 7.61436e-84 1.767e-83 3.84336e-83 7.81863e-83 1.48484e-82 2.6286e-82 4.33416e-82 6.65678e-82 9.53688e-82 1.27843e-81 1.61198e-81 1.92671e-81 2.20547e-81 2.44696e-81 2.66305e-81 2.86918e-81 3.07352e-81 3.27171e-81 3.4503e-81 3.5961e-81 3.70402e-81 3.77783e-81 3.82403e-81 3.84507e-81 3.83747e-81 3.79581e-81 3.71878e-81 3.61337e-81 3.49523e-81 3.38515e-81 3.30194e-81 3.25394e-81 3.23341e-81 3.21819e-81 3.18145e-81 3.10472e-81 2.98729e-81 2.84708e-81 2.71279e-81 2.61174e-81 2.55894e-81 2.55175e-81 2.57166e-81 2.59193e-81 2.58832e-81 2.54921e-81 2.48126e-81 2.40788e-81 2.36033e-81 2.36555e-81 2.43627e-81 2.56806e-81 2.74342e-81 2.9392e-81 3.13224e-81 3.30131e-81 3.42664e-81 3.49031e-81 3.47874e-81 3.38644e-81 3.21917e-81 2.99535e-81 2.74485e-81 2.50488e-81 2.31266e-81 2.19647e-81 2.16756e-81 2.21614e-81 2.31392e-81 2.42343e-81 2.51147e-81 2.56084e-81 2.57433e-81 2.56852e-81 2.5612e-81 2.56049e-81 2.56235e-81 2.55689e-81 2.53702e-81 2.50235e-81 2.45651e-81 2.40254e-81 2.3416e-81 2.27633e-81 2.21518e-81 2.17334e-81 2.16859e-81 2.21396e-81 2.31064e-81 2.44448e-81 2.58823e-81 2.71018e-81 2.7871e-81 2.81574e-81 2.81558e-81 2.81986e-81 2.85938e-81 2.9494e-81 3.08696e-81 3.258e-81 3.44624e-81 3.6364e-81 3.81137e-81 3.94843e-81 4.01995e-81 3.99879e-81 3.86538e-81 3.61279e-81 3.24901e-81 2.79689e-81 2.29219e-81 1.77872e-81 1.30042e-81 8.92108e-82 5.72604e-82 3.433e-82 1.92149e-82 1.0044e-82 4.9084e-83 2.24599e-83 9.64095e-84 3.89018e-84 1.47873e-84 5.30661e-85 1.80171e-85 5.79959e-86 1.77348e-86 5.16183e-87 1.4326e-87 3.7979e-88 9.63317e-89 2.34141e-89 5.46136e-90 1.22417e-90 2.64037e-91 5.48663e-92 1.09969e-92 2.12829e-93 3.98146e-94 7.20663e-95 1.26329e-95 2.14656e-96 3.53845e-97 5.66316e-98 8.80665e-99 1.33162e-99 1.95916e-100 2.80646e-101 3.91672e-102 5.32866e-103 7.07121e-104 9.15772e-105 1.15804e-105 1.43062e-106 1.72741e-107 2.03956e-108 2.35581e-109 2.66313e-110 2.94761e-111 3.19553e-112 3.39452e-113 3.53454e-114 3.60878e-115 3.61387e-116 3.51913e-117 0 
0 3.13667e-168 6.01612e-167 1.1384e-165 2.13062e-164 3.9437e-163 7.21846e-162 1.30641e-160 2.33758e-159 4.13477e-158 7.22915e-157 1.24918e-155 2.13308e-154 3.59905e-153 5.99942e-152 9.8791e-151 1.60678e-149 2.58086e-148 4.09343e-147 6.41007e-146 9.90898e-145 1.51189e-143 2.27654e-142 3.38241e-141 4.95795e-140 7.16863e-139 1.02225e-137 1.43743e-136 1.99274e-135 2.72318e-134 3.66757e-133 4.86718e-132 6.3634e-131 8.19458e-130 1.0392e-128 1.29754e-127 1.59475e-126 1.92893e-125 2.2956e-124 2.68736e-123 3.09386e-122 3.50197e-121 3.89624e-120 4.25977e-119 4.57521e-118 4.82612e-117 4.99826e-116 5.08087e-115 5.06781e-114 4.95818e-113 4.75659e-112 4.47289e-111 4.12137e-110 3.71955e-109 3.28672e-108 2.84238e-107 2.40472e-106 1.98937e-105 1.60855e-104 1.27062e-103 9.80026e-103 7.37693e-102 5.41617e-101 3.87649e-100 2.70305e-99 1.83514e-98 1.21227e-97 7.78652e-97 4.85947e-96 2.94446e-95 1.73081e-94 9.86168e-94 5.44162e-93 2.90519e-92 1.49921e-91 7.4703e-91 3.59023e-90 1.6623e-89 7.40562e-89 3.17037e-88 1.30241e-87 5.12674e-87 1.93066e-86 6.94423e-86 2.3814e-85 7.77189e-85 2.4091e-84 7.07826e-84 1.96701e-83 5.15859e-83 1.27382e-82 2.95493e-82 6.42489e-82 1.30661e-81 2.48068e-81 4.39043e-81 7.23765e-81 1.11144e-80 1.59214e-80 2.13414e-80 2.69088e-80 3.2163e-80 3.68173e-80 4.08499e-80 4.44576e-80 4.78972e-80 5.1305e-80 5.46086e-80 5.75847e-80 6.00138e-80 6.18119e-80 6.30413e-80 6.38106e-80 6.41605e-80 6.40332e-80 6.33385e-80 6.20549e-80 6.02986e-80 5.83308e-80 5.64974e-80 5.51115e-80 5.43117e-80 5.39688e-80 5.37136e-80 5.30993e-80 5.18184e-80 4.98594e-80 4.75208e-80 4.52809e-80 4.35951e-80 4.27134e-80 4.2592e-80 4.29226e-80 4.326e-80 4.32003e-80 4.25499e-80 4.14199e-80 4.01999e-80 3.94105e-80 3.95002e-80 4.0681e-80 4.28791e-80 4.58032e-80 4.90674e-80 5.2286e-80 5.51045e-80 5.71933e-80 5.82535e-80 5.80589e-80 5.6518e-80 5.37273e-80 4.99938e-80 4.58157e-80 4.1813e-80 3.86065e-80 3.66677e-80 3.61841e-80 3.69931e-80 3.86231e-80 4.04497e-80 4.19193e-80 4.27446e-80 4.29713e-80 4.28756e-80 4.27541e-80 4.27424e-80 4.27739e-80 4.26843e-80 4.23551e-80 4.17789e-80 4.10157e-80 4.01157e-80 3.90982e-80 3.80077e-80 3.69853e-80 3.62846e-80 3.62025e-80 3.69563e-80 3.85659e-80 4.07956e-80 4.3191e-80 4.52237e-80 4.65066e-80 4.69852e-80 4.69841e-80 4.70568e-80 4.77169e-80 4.92185e-80 5.15128e-80 5.43657e-80 5.75054e-80 6.0677e-80 6.35947e-80 6.58799e-80 6.70719e-80 6.67187e-80 6.44936e-80 6.02809e-80 5.42134e-80 4.6672e-80 3.82529e-80 2.96869e-80 2.17068e-80 1.48936e-80 9.56146e-81 5.73386e-81 3.2102e-81 1.67855e-81 8.20572e-82 3.75618e-82 1.613e-82 6.51132e-83 2.47619e-83 8.89028e-84 3.01992e-84 9.72582e-85 2.97563e-85 8.66541e-86 2.40629e-86 6.38273e-87 1.61986e-87 3.93946e-88 9.19422e-89 2.06212e-89 4.45039e-90 9.25344e-91 1.85581e-91 3.59389e-92 6.72744e-93 1.21847e-93 2.1373e-94 3.63399e-95 5.99426e-96 9.59987e-97 1.49384e-97 2.26028e-98 3.32767e-99 4.77003e-100 6.66158e-101 9.06918e-102 1.20431e-102 1.56074e-103 1.975e-104 2.44157e-105 2.95013e-106 3.48566e-107 4.02897e-108 4.55776e-109 5.04819e-110 5.47668e-111 5.82186e-112 6.06634e-113 6.1982e-114 6.21141e-115 6.05285e-116 0 