# vtk DataFile Version 3.0
Gray-Scott Simulation Output
ASCII
DATASET STRUCTURED_POINTS
DIMENSIONS 256 256 1
SPACING 1.0 1.0 1.0
ORIGIN 0 0 0
POINT_DATA 65536
SCALARS u double
LOOKUP_TABLE default
0 0 0 0 0 0 0 0 0 0 0 0 0 0 0 0 0 0 0 0 0 0 0 0 0 0 0 0 0 0 0 0 0 0 0 0 0 0 0 0 0 0 0 0 0 0 0 0 0 0 0 0 0 0 0 0 0 0 0 0 0 0 0 0 0 0 0 0 0 0 0 0 0 0 0 0 0 0 0 0 0 0 0 0 0 0 0 0 0 0 0 0 0 0 0 0 0 0 0 0 0 0 0 0 0 0 0 0 0 0 0 0 0 0 0 0 0 0 0 0 0 0 0 0 0 0 0 0 0 0 0 0 0 0 0 0 0 0 0 0 0 0 0 0 0 0 0 0 0 0 0 0 0 0 0 0 0 0 0 0 0 0 0 0 0 0 0 0 0 0 0 0 0 0 0 0 0 0 0 0 0 0 0 0 0 0 0 0 0 0 0 0 0 0 0 0 0 0 0 0 0 0 0 0 0 0 0 0 0 0 0 0 0 0 0 0 0 0 0 0 0 0 0 0 0 0 0 0 0 0 0 0 0 0 0 0 0 0 0 0 0 0 0 0 0 0 0 0 0 0 0 0 0 0 0 0 
0 4.89975e-76 1.68914e-75 5.30228e-75 1.63789e-74 5.01491e-74 1.52294e-73 4.58722e-73 1.3704e-72 4.06023e-72 1.19299e-71 3.47598e-71 1.00427e-70 2.87697e-70 8.17148e-70 2.30104e-69 6.42358e-69 1.77761e-68 4.87611e-68 1.32575e-67 3.57253e-67 9.54086e-67 2.52504e-66 6.62202e-66 1.72078e-65 4.43041e-65 1.1301e-64 2.85573e-64 7.14846e-64 1.77245e-63 4.35279e-63 1.05869e-62 2.54999e-62 6.08205e-62 1.43639e-61 3.35868e-61 7.77516e-61 1.78181e-60 4.04193e-60 9.07528e-60 2.0167e-59 4.43501e-59 9.65136e-59 2.0782e-58 4.42744e-58 9.33151e-58 1.94557e-57 4.01238e-57 8.18429e-57 1.65099e-56 3.29351e-56 6.49656e-56 1.26701e-55 2.44296e-55 4.65637e-55 8.77284e-55 1.63363e-54 3.00644e-54 5.46759e-54 9.82534e-54 1.7445e-53 3.06003e-53 5.30246e-53 9.07587e-53 1.53434e-52 2.5618e-52 4.22398e-52 6.87729e-52 1.10561e-51 1.75484e-51 2.7498e-51 4.25364e-51 6.49517e-51 9.78958e-51 1.45633e-50 2.13824e-50 3.0984e-50 4.43085e-50 6.25309e-50 8.70869e-50 1.1969e-49 1.62335e-49 2.1728e-49 2.87008e-49 3.74157e-49 4.81418e-49 6.11409e-49 7.66518e-49 9.4873e-49 1.15945e-48 1.39932e-48 1.66808e-48 1.96446e-48 2.28614e-48 2.62971e-48 2.99083e-48 3.36433e-48 3.74444e-48 4.12507e-48 4.50007e-48 4.86352e-48 5.21004e-48 5.53493e-48 5.83441e-48 6.10569e-48 6.34698e-48 6.55747e-48 6.73722e-48 6.88705e-48 7.00837e-48 7.10302e-48 7.17315e-48 7.22102e-48 7.24897e-48 7.25928e-48 7.25416e-48 7.23566e-48 7.20574e-48 7.16621e-48 7.11877e-48 7.06501e-48 7.00643e-48 6.94447e-48 6.88054e-48 6.81595e-48 6.75202e-48 6.69001e-48 6.63111e-48 6.57645e-48 6.5271e-48 6.48398e-48 6.44788e-48 6.41941e-48 6.39894e-48 6.38661e-48 6.38227e-48 6.38545e-48 6.39538e-48 6.41098e-48 6.43089e-48 6.45353e-48 6.47717e-48 6.5e-48 6.52027e-48 6.53638e-48 6.54698e-48 6.55107e-48 6.54806e-48 6.53783e-48 6.5207e-48 6.49739e-48 6.469e-48 6.43685e-48 6.4024e-48 6.3671e-48 6.3323e-48 6.29915e-48 6.2685e-48 6.24088e-48 6.21651e-48 6.19531e-48 6.17696e-48 6.16099e-48 6.14686e-48 6.13404e-48 6.12214e-48 6.11091e-48 6.10035e-48 6.09068e-48 6.08238e-48 6.07614e-48 6.07284e-48 6.07344e-48 6.07899e-48 6.09051e-48 6.1089e-48 6.13495e-48 6.16921e-48 6.21197e-48 6.26322e-48 6.32259e-48 6.38934e-48 6.46227e-48 6.53975e-48 6.61965e-48 6.6993e-48 6.77553e-48 6.84465e-48 6.9025e-48 6.94456e-48 6.96605e-48 6.96215e-48 6.92819e-48 6.85992e-48 6.75378e-48 6.60717e-48 6.41869e-48 6.18833e-48 5.91757e-48 5.60944e-48 5.26843e-48 4.90033e-48 4.51193e-48 4.11077e-48 3.70468e-48 3.30146e-48 2.90844e-48 2.53223e-48 2.17838e-48 1.85124e-48 1.55386e-48 1.28799e-48 1.05416e-48 8.5182e-49 6.79499e-49 5.35053e-49 4.15855e-49 3.1901e-49 2.41526e-49 1.80474e-49 1.3309e-49 9.6862e-50 6.95736e-50 4.93198e-50 3.4506e-50 2.38273e-50 1.62397e-50 1.0925e-50 7.25475e-51 4.75561e-51 3.07748e-51 1.96615e-51 1.24021e-51 7.72435e-52 4.75056e-52 2.8852e-52 1.73056e-52 1.02521e-52 5.99903e-53 3.46763e-53 1.98016e-53 1.11717e-53 6.22765e-54 3.43046e-54 1.86742e-54 1.00467e-54 5.34247e-55 2.80818e-55 1.45918e-55 7.49541e-56 3.80542e-56 1.9073e-56 9.38592e-57 4.42262e-57 1.74912e-57 0 
0 1.68714e-75 5.81736e-75 1.82651e-74 5.6435e-74 1.72835e-73 5.25001e-73 1.58176e-72 4.72663e-72 1.40078e-71 4.11694e-71 1.19988e-70 3.46766e-70 9.93677e-70 2.82319e-69 7.95231e-69 2.22065e-68 6.14718e-68 1.68676e-67 4.58757e-67 1.23663e-66 3.30369e-66 8.74641e-66 2.29458e-65 5.96477e-65 1.53628e-64 3.92017e-64 9.90984e-64 2.48157e-63 6.15539e-63 1.51224e-62 3.67954e-62 8.86625e-62 2.11558e-61 4.99841e-61 1.16926e-60 2.70793e-60 6.20836e-60 1.40895e-59 3.16488e-59 7.03609e-59 1.54804e-58 3.37033e-58 7.26055e-58 1.54752e-57 3.26315e-57 6.80669e-57 1.40441e-56 2.86602e-56 5.78428e-56 1.15443e-55 2.27824e-55 4.44534e-55 8.57523e-55 1.63525e-54 3.08235e-54 5.74248e-54 1.0573e-53 1.92373e-53 3.45856e-53 6.14348e-53 1.07811e-52 1.86899e-52 3.2004e-52 5.41279e-52 9.04111e-52 1.49132e-51 2.42904e-51 3.90641e-51 6.20256e-51 9.72258e-51 1.50446e-50 2.29796e-50 3.46448e-50 5.15521e-50 7.57088e-50 1.09728e-49 1.56946e-49 2.21527e-49 3.0856e-49 4.24119e-49 5.75267e-49 7.70001e-49 1.0171e-48 1.32589e-48 1.70585e-48 2.1662e-48 2.71532e-48 3.36012e-48 4.10543e-48 4.95336e-48 5.9028e-48 6.94903e-48 8.08356e-48 9.29417e-48 1.05652e-47 1.18782e-47 1.32127e-47 1.4547e-47 1.58594e-47 1.7129e-47 1.8337e-47 1.94671e-47 2.05062e-47 2.14448e-47 2.22771e-47 2.30006e-47 2.36161e-47 2.41267e-47 2.45378e-47 2.48563e-47 2.50898e-47 2.52466e-47 2.53349e-47 2.53628e-47 2.5338e-47 2.52677e-47 2.51587e-47 2.50172e-47 2.48489e-47 2.46593e-47 2.44536e-47 2.42366e-47 2.40131e-47 2.37878e-47 2.35649e-47 2.33489e-47 2.31438e-47 2.29536e-47 2.2782e-47 2.26321e-47 2.25066e-47 2.24077e-47 2.23367e-47 2.2294e-47 2.22792e-47 2.22905e-47 2.23253e-47 2.23799e-47 2.24496e-47 2.25287e-47 2.26113e-47 2.26911e-47 2.2762e-47 2.28184e-47 2.28556e-47 2.28701e-47 2.28599e-47 2.28245e-47 2.27651e-47 2.26842e-47 2.25856e-47 2.24738e-47 2.23541e-47 2.22315e-47 2.21106e-47 2.19955e-47 2.18891e-47 2.17933e-47 2.17088e-47 2.16353e-47 2.15717e-47 2.15163e-47 2.14673e-47 2.14229e-47 2.13815e-47 2.13424e-47 2.13056e-47 2.12719e-47 2.12429e-47 2.1221e-47 2.12094e-47 2.12114e-47 2.12307e-47 2.12708e-47 2.1335e-47 2.1426e-47 2.15457e-47 2.16954e-47 2.18749e-47 2.20832e-47 2.23176e-47 2.25741e-47 2.28472e-47 2.31294e-47 2.34116e-47 2.36827e-47 2.393e-47 2.4139e-47 2.42936e-47 2.43773e-47 2.4373e-47 2.4264e-47 2.40354e-47 2.36744e-47 2.31714e-47 2.25213e-47 2.17236e-47 2.07833e-47 1.97107e-47 1.85213e-47 1.72352e-47 1.58763e-47 1.4471e-47 1.30468e-47 1.16312e-47 1.02503e-47 8.92741e-48 7.68225e-48 6.53036e-48 5.48268e-48 4.54558e-48 3.72105e-48 3.00728e-48 2.39921e-48 1.88938e-48 1.46856e-48 1.1266e-48 8.52974e-49 6.37349e-49 4.69989e-49 3.42032e-49 2.45649e-49 1.74117e-49 1.21801e-49 8.40929e-50 5.73034e-50 3.85419e-50 2.5588e-50 1.67693e-50 1.0849e-50 6.92931e-51 4.3696e-51 2.72066e-51 1.6727e-51 1.01555e-51 6.08926e-52 3.60607e-52 2.10934e-52 1.21881e-52 6.95724e-53 3.92362e-53 2.18636e-53 1.20386e-53 6.55071e-54 3.52285e-54 1.87254e-54 9.83865e-55 5.11018e-55 2.62387e-55 1.33158e-55 6.67121e-56 3.28163e-56 1.54574e-56 6.11172e-57 0 
0 5.28857e-75 1.82394e-74 5.7283e-74 1.77042e-73 5.42361e-73 1.64796e-72 4.96662e-72 1.4846e-71 4.40116e-71 1.29394e-70 3.77244e-70 1.09061e-69 3.12629e-69 8.88542e-69 2.50374e-68 6.99418e-68 1.93685e-67 5.31666e-67 1.44657e-66 3.90095e-66 1.04257e-65 2.76131e-65 7.24722e-65 1.88472e-64 4.85638e-64 1.23976e-63 3.13542e-63 7.85515e-63 1.94932e-62 4.79131e-62 1.16636e-61 2.81184e-61 6.71267e-61 1.58677e-60 3.71375e-60 8.60519e-60 1.97389e-59 4.48197e-59 1.00731e-58 2.24062e-58 4.93233e-58 1.07444e-57 2.31588e-57 4.93882e-57 1.042e-56 2.17475e-56 4.48966e-56 9.16732e-56 1.85123e-55 3.69681e-55 7.29972e-55 1.42514e-54 2.75072e-54 5.24846e-54 9.89864e-54 1.84518e-53 3.39924e-53 6.18825e-53 1.11316e-52 1.97839e-52 3.47371e-52 6.0251e-52 1.03225e-51 1.74672e-51 2.91902e-51 4.81719e-51 7.84978e-51 1.26298e-50 2.0062e-50 3.14602e-50 4.87001e-50 7.44129e-50 1.12226e-49 1.67046e-49 2.45392e-49 3.55749e-49 5.08946e-49 7.18506e-49 1.00095e-48 1.37598e-48 1.8665e-48 2.49843e-48 3.3002e-48 4.30192e-48 5.53422e-48 7.02676e-48 8.80634e-48 1.0895e-47 1.33078e-47 1.60509e-47 1.912e-47 2.24989e-47 2.61592e-47 3.00604e-47 3.4151e-47 3.83705e-47 4.2652e-47 4.6925e-47 5.11193e-47 5.51679e-47 5.90102e-47 6.25947e-47 6.58804e-47 6.88383e-47 7.14509e-47 7.37121e-47 7.56258e-47 7.72041e-47 7.84656e-47 7.94334e-47 8.01334e-47 8.05926e-47 8.08378e-47 8.08952e-47 8.07895e-47 8.05434e-47 8.01781e-47 7.97132e-47 7.91666e-47 7.85551e-47 7.78948e-47 7.72007e-47 7.64876e-47 7.57696e-47 7.50605e-47 7.43739e-47 7.37227e-47 7.31191e-47 7.25745e-47 7.20991e-47 7.17015e-47 7.13883e-47 7.11636e-47 7.10291e-47 7.09828e-47 7.10198e-47 7.11315e-47 7.1306e-47 7.15283e-47 7.17808e-47 7.20444e-47 7.22991e-47 7.25255e-47 7.27058e-47 7.2825e-47 7.28722e-47 7.28408e-47 7.27293e-47 7.25414e-47 7.22852e-47 7.19728e-47 7.16189e-47 7.12395e-47 7.0851e-47 7.04682e-47 7.01037e-47 6.9767e-47 6.94639e-47 6.91967e-47 6.89645e-47 6.87636e-47 6.85888e-47 6.84338e-47 6.82931e-47 6.81621e-47 6.8038e-47 6.7921e-47 6.78135e-47 6.77209e-47 6.7651e-47 6.76136e-47 6.76195e-47 6.76806e-47 6.78081e-47 6.80126e-47 6.83028e-47 6.86853e-47 6.91637e-47 6.97383e-47 7.04057e-47 7.1158e-47 7.19829e-47 7.2863e-47 7.37751e-47 7.46905e-47 7.55742e-47 7.63856e-47 7.70784e-47 7.76019e-47 7.79022e-47 7.79245e-47 7.76151e-47 7.69246e-47 7.58111e-47 7.42431e-47 7.22024e-47 6.96864e-47 6.67096e-47 6.3304e-47 5.95184e-47 5.54167e-47 5.10752e-47 4.65783e-47 4.20149e-47 3.74738e-47 3.30391e-47 2.87866e-47 2.47806e-47 2.1072e-47 1.76966e-47 1.46757e-47 1.20164e-47 9.71318e-48 7.75037e-48 6.1041e-48 4.74494e-48 3.64023e-48 2.75612e-48 2.05935e-48 1.51851e-48 1.10499e-48 7.93519e-49 5.62367e-49 3.93328e-49 2.71504e-49 1.8497e-49 1.24379e-49 8.25527e-50 5.40856e-50 3.49801e-50 2.23344e-50 1.40791e-50 8.76286e-51 5.38545e-51 3.2684e-51 1.95892e-51 1.15958e-51 6.77991e-52 3.91578e-52 2.2342e-52 1.25942e-52 7.01453e-53 3.86051e-53 2.09965e-53 1.1286e-53 5.99603e-54 3.14885e-54 1.63469e-54 8.38927e-55 4.25531e-55 2.13085e-55 1.04769e-55 4.93278e-56 1.94976e-56 0 
0 1.63128e-74 5.62736e-74 1.76784e-73 5.46545e-73 1.67484e-72 5.09059e-72 1.5347e-71 4.58895e-71 1.36088e-70 4.00235e-70 1.16728e-69 3.37582e-69 9.68051e-69 2.75239e-68 7.75864e-68 2.16822e-67 6.00667e-67 1.6495e-66 4.48985e-66 1.21128e-65 3.23865e-65 8.58149e-65 2.25326e-64 5.8625e-64 1.51129e-63 3.85989e-63 9.76648e-63 2.44797e-62 6.07781e-62 1.49463e-61 3.64025e-61 8.78031e-61 2.09719e-60 4.96003e-60 1.16149e-59 2.69276e-59 6.18013e-59 1.40405e-58 3.15731e-58 7.02697e-58 1.54775e-57 3.37347e-57 7.27553e-57 1.55248e-56 3.27736e-56 6.84421e-56 1.4138e-55 2.88852e-55 5.83651e-55 1.16622e-54 2.30421e-54 4.50129e-54 8.69334e-54 1.65971e-53 3.1321e-53 5.84194e-53 1.07686e-52 1.96155e-52 3.53054e-52 6.27833e-52 1.10299e-51 1.91418e-51 3.28127e-51 5.55534e-51 9.28862e-51 1.53365e-50 2.50037e-50 4.02483e-50 6.39621e-50 1.00346e-49 1.55398e-49 2.37537e-49 3.5837e-49 5.33605e-49 7.84108e-49 1.13705e-48 1.62708e-48 2.29751e-48 3.20119e-48 4.40116e-48 5.97065e-48 7.99246e-48 1.05573e-47 1.37612e-47 1.77015e-47 2.24722e-47 2.81579e-47 3.48277e-47 4.25277e-47 5.12756e-47 6.10549e-47 7.1811e-47 8.34501e-47 9.58399e-47 1.08813e-46 1.22174e-46 1.35707e-46 1.49187e-46 1.6239e-46 1.75103e-46 1.87135e-46 1.98326e-46 2.08549e-46 2.17717e-46 2.25779e-46 2.32723e-46 2.38566e-46 2.43353e-46 2.47146e-46 2.50023e-46 2.5207e-46 2.53373e-46 2.5402e-46 2.54093e-46 2.5367e-46 2.52822e-46 2.51616e-46 2.5011e-46 2.48359e-46 2.46415e-46 2.44327e-46 2.4214e-46 2.39898e-46 2.37645e-46 2.35424e-46 2.33275e-46 2.31239e-46 2.29352e-46 2.27651e-46 2.26167e-46 2.24927e-46 2.2395e-46 2.23251e-46 2.22833e-46 2.22691e-46 2.2281e-46 2.23163e-46 2.23712e-46 2.24411e-46 2.25205e-46 2.26033e-46 2.26833e-46 2.27545e-46 2.28113e-46 2.2849e-46 2.28641e-46 2.28546e-46 2.282e-46 2.27615e-46 2.26817e-46 2.25843e-46 2.24738e-46 2.23555e-46 2.22343e-46 2.2115e-46 2.20014e-46 2.18965e-46 2.18021e-46 2.1719e-46 2.16467e-46 2.15843e-46 2.15299e-46 2.14817e-46 2.14379e-46 2.1397e-46 2.13582e-46 2.13216e-46 2.12879e-46 2.12588e-46 2.12368e-46 2.12249e-46 2.12266e-46 2.12457e-46 2.12856e-46 2.13497e-46 2.14409e-46 2.15612e-46 2.17118e-46 2.1893e-46 2.21037e-46 2.23416e-46 2.2603e-46 2.28826e-46 2.31732e-46 2.34659e-46 2.37498e-46 2.40124e-46 2.42389e-46 2.44136e-46 2.45193e-46 2.45386e-46 2.44543e-46 2.42505e-46 2.39138e-46 2.34336e-46 2.28038e-46 2.20231e-46 2.10957e-46 2.00313e-46 1.8845e-46 1.75568e-46 1.61907e-46 1.47734e-46 1.3333e-46 1.18978e-46 1.04946e-46 9.14774e-47 7.87781e-47 6.70117e-47 5.62953e-47 4.66982e-47 3.82452e-47 3.09208e-47 2.46764e-47 1.94372e-47 1.51105e-47 1.1593e-47 8.77749e-48 6.5583e-48 4.83564e-48 3.51849e-48 2.5264e-48 1.79018e-48 1.25185e-48 8.63941e-49 5.88444e-49 3.95581e-49 2.6248e-49 1.71914e-49 1.11149e-49 7.09429e-50 4.4704e-50 2.78131e-50 1.70863e-50 1.03652e-50 6.20971e-51 3.67418e-51 2.14725e-51 1.23958e-51 7.06914e-52 3.98292e-52 2.21725e-52 1.21967e-52 6.63011e-53 3.56197e-53 1.89142e-53 9.92767e-54 5.15113e-54 2.64218e-54 1.33949e-54 6.70402e-55 3.29453e-55 1.55045e-55 6.12635e-56 0 
0 4.98726e-74 1.72086e-73 5.4077e-73 1.67236e-72 5.12642e-72 1.55866e-71 4.70056e-71 1.40601e-70 4.17104e-70 1.22714e-69 3.58024e-69 1.0358e-68 2.97138e-68 8.45152e-68 2.38332e-67 6.66303e-67 1.84663e-66 5.07316e-66 1.38147e-65 3.72857e-65 9.9736e-65 2.6439e-64 6.9453e-64 1.80785e-63 4.66263e-63 1.19143e-62 3.01607e-62 7.56352e-62 1.87881e-61 4.62265e-61 1.12646e-60 2.71845e-60 6.49654e-60 1.53731e-59 3.60189e-59 8.35515e-59 1.91866e-58 4.36144e-58 9.81329e-58 2.18534e-57 4.8162e-57 1.05036e-56 2.26666e-56 4.83959e-56 1.02228e-55 2.13617e-55 4.41535e-55 9.02656e-55 1.82503e-54 3.64894e-54 7.21403e-54 1.41014e-53 2.7251e-53 5.20592e-53 9.83037e-53 1.83467e-52 3.38396e-52 6.16778e-52 1.11079e-51 1.97648e-51 3.47436e-51 6.03304e-51 1.03476e-50 1.75287e-50 2.9324e-50 4.84426e-50 7.90179e-50 1.27257e-49 2.0233e-49 3.17564e-49 4.91997e-49 7.52355e-49 1.1355e-48 1.69132e-48 2.4861e-48 3.60615e-48 5.16159e-48 7.28995e-48 1.01591e-47 1.39691e-47 1.89524e-47 2.53715e-47 3.35135e-47 4.36821e-47 5.61845e-47 7.13163e-47 8.93427e-47 1.10477e-46 1.34861e-46 1.62542e-46 1.9346e-46 2.27432e-46 2.64152e-46 3.03189e-46 3.44004e-46 3.85971e-46 4.284e-46 4.70575e-46 5.11785e-46 5.51364e-46 5.88714e-46 6.23339e-46 6.54854e-46 6.82998e-46 7.07633e-46 7.28735e-46 7.46378e-46 7.60718e-46 7.71972e-46 7.80396e-46 7.86267e-46 7.89868e-46 7.91475e-46 7.9135e-46 7.89735e-46 7.8685e-46 7.82896e-46 7.78055e-46 7.72492e-46 7.66362e-46 7.5981e-46 7.52973e-46 7.45985e-46 7.38977e-46 7.32077e-46 7.25409e-46 7.19095e-46 7.1325e-46 7.07983e-46 7.03389e-46 6.99551e-46 6.96533e-46 6.94374e-46 6.93089e-46 6.9266e-46 6.9304e-46 6.94144e-46 6.95858e-46 6.98036e-46 7.00509e-46 7.03089e-46 7.05583e-46 7.07803e-46 7.09575e-46 7.10755e-46 7.11234e-46 7.1095e-46 7.09888e-46 7.08084e-46 7.05617e-46 7.02605e-46 6.99191e-46 6.95532e-46 6.91785e-46 6.88095e-46 6.84585e-46 6.81345e-46 6.78432e-46 6.75868e-46 6.73641e-46 6.71715e-46 6.70039e-46 6.68553e-46 6.672e-46 6.65936e-46 6.64735e-46 6.63597e-46 6.62549e-46 6.61642e-46 6.60955e-46 6.60582e-46 6.60632e-46 6.61221e-46 6.62461e-46 6.64457e-46 6.67297e-46 6.71049e-46 6.75753e-46 6.81418e-46 6.88016e-46 6.9548e-46 7.03698e-46 7.12506e-46 7.21691e-46 7.30977e-46 7.40032e-46 7.48461e-46 7.55813e-46 7.6159e-46 7.65256e-46 7.66261e-46 7.6406e-46 7.58148e-46 7.48087e-46 7.33538e-46 7.14294e-46 6.90298e-46 6.61668e-46 6.28695e-46 5.91843e-46 5.51732e-46 5.09107e-46 4.64807e-46 4.19718e-46 3.74731e-46 3.30695e-46 2.88381e-46 2.48446e-46 2.11415e-46 1.77664e-46 1.47418e-46 1.20763e-46 9.76551e-47 7.79464e-47 6.14047e-47 4.77402e-47 3.66288e-47 2.77333e-47 2.07211e-47 1.52773e-47 1.1115e-47 7.97994e-48 5.65362e-48 3.95276e-48 2.72732e-48 1.85717e-48 1.24814e-48 8.27934e-49 5.42091e-49 3.50363e-49 2.23543e-49 1.4081e-49 8.75712e-50 5.37749e-50 3.26077e-50 1.95262e-50 1.1548e-50 6.74561e-51 3.89224e-51 2.21859e-51 1.24938e-51 6.95156e-52 3.82193e-52 2.07651e-52 1.11499e-52 5.91746e-53 3.10428e-53 1.60983e-53 8.25284e-54 4.18163e-54 2.09174e-54 1.0274e-54 4.83283e-55 1.90896e-55 0 
0 1.51228e-73 5.21946e-73 1.64068e-72 5.07549e-72 1.55634e-71 4.73353e-71 1.42801e-70 4.27287e-70 1.26803e-69 3.73195e-69 1.08922e-68 3.1524e-68 9.04674e-68 2.57419e-67 7.26207e-67 2.03109e-66 5.63141e-66 1.54775e-65 4.21649e-65 1.13853e-64 3.04683e-64 8.08053e-64 2.12368e-63 5.53052e-63 1.42707e-62 3.64833e-62 9.24026e-62 2.31839e-61 5.76197e-61 1.41842e-60 3.45827e-60 8.35027e-60 1.99663e-59 4.72737e-59 1.10824e-58 2.57219e-58 5.91014e-58 1.34426e-57 3.02638e-57 6.74352e-57 1.48708e-56 3.24515e-56 7.00725e-56 1.49706e-55 3.16426e-55 6.61621e-55 1.3684e-54 2.79928e-54 5.6633e-54 1.13304e-53 2.24147e-53 4.38427e-53 8.47802e-53 1.62064e-52 3.06222e-52 5.71874e-52 1.05546e-51 1.92494e-51 3.46887e-51 6.17611e-51 1.08632e-50 1.88746e-50 3.23918e-50 5.49024e-50 9.18984e-50 1.51896e-49 2.47898e-49 3.99437e-49 6.35388e-49 9.97726e-49 1.54644e-48 2.36578e-48 3.57196e-48 5.32233e-48 7.82596e-48 1.13551e-47 1.62572e-47 2.29658e-47 3.20106e-47 4.4022e-47 5.97323e-47 7.99675e-47 1.05631e-46 1.37675e-46 1.77063e-46 2.24718e-46 2.81463e-46 3.47954e-46 4.24618e-46 5.11582e-46 6.08628e-46 7.15151e-46 8.30152e-46 9.52247e-46 1.07971e-45 1.21054e-45 1.34256e-45 1.4735e-45 1.60114e-45 1.72338e-45 1.83838e-45 1.94462e-45 2.04093e-45 2.12655e-45 2.20111e-45 2.26459e-45 2.31729e-45 2.35975e-45 2.39269e-45 2.41696e-45 2.43347e-45 2.4431e-45 2.44674e-45 2.4452e-45 2.43924e-45 2.42952e-45 2.41667e-45 2.40122e-45 2.38367e-45 2.36447e-45 2.34407e-45 2.32286e-45 2.30124e-45 2.27961e-45 2.25834e-45 2.23782e-45 2.21839e-45 2.20043e-45 2.18425e-45 2.17014e-45 2.15837e-45 2.14911e-45 2.1425e-45 2.13858e-45 2.1373e-45 2.13849e-45 2.14193e-45 2.14723e-45 2.15397e-45 2.16161e-45 2.16959e-45 2.1773e-45 2.18417e-45 2.18966e-45 2.19332e-45 2.19483e-45 2.19399e-45 2.19075e-45 2.18523e-45 2.17767e-45 2.16843e-45 2.15796e-45 2.14673e-45 2.13524e-45 2.12393e-45 2.11317e-45 2.10324e-45 2.09433e-45 2.08648e-45 2.07967e-45 2.07378e-45 2.06866e-45 2.06411e-45 2.05997e-45 2.05609e-45 2.0524e-45 2.0489e-45 2.04566e-45 2.04286e-45 2.04073e-45 2.03957e-45 2.03971e-45 2.04152e-45 2.04534e-45 2.0515e-45 2.06028e-45 2.0719e-45 2.08647e-45 2.10405e-45 2.12456e-45 2.1478e-45 2.17344e-45 2.20099e-45 2.22981e-45 2.25906e-45 2.28773e-45 2.31459e-45 2.33828e-45 2.35722e-45 2.36977e-45 2.37419e-45 2.36878e-45 2.35192e-45 2.32223e-45 2.2786e-45 2.22035e-45 2.14725e-45 2.05961e-45 1.95831e-45 1.84476e-45 1.72085e-45 1.58889e-45 1.4515e-45 1.31144e-45 1.1715e-45 1.03434e-45 9.02402e-46 7.77763e-46 6.62086e-46 5.56572e-46 4.61955e-46 3.78522e-46 3.06157e-46 2.4441e-46 1.92566e-46 1.49727e-46 1.14884e-46 8.69849e-47 6.49894e-47 4.79127e-47 3.48553e-47 2.50209e-47 1.77239e-47 1.23893e-47 8.54646e-48 5.81823e-48 3.90914e-48 2.59228e-48 1.69674e-48 1.09624e-48 6.99179e-49 4.40239e-49 2.73676e-49 1.67984e-49 1.01816e-49 6.09412e-50 3.60241e-50 2.10327e-50 1.21299e-50 6.91056e-51 3.88958e-51 2.16303e-51 1.18859e-51 6.45425e-52 3.46375e-52 1.83726e-52 9.63286e-53 4.99266e-53 2.55807e-53 1.29543e-53 6.4764e-54 3.17932e-54 1.49482e-54 5.90242e-55 0 
0 4.54828e-73 1.57019e-72 4.93722e-72 1.52784e-71 4.68649e-71 1.42586e-70 4.30302e-70 1.288e-69 3.8237e-69 1.12577e-68 3.28695e-68 9.51673e-68 2.73218e-67 7.77735e-67 2.19498e-66 6.14157e-66 1.70354e-65 4.68409e-65 1.27664e-64 3.44871e-64 9.2334e-64 2.44994e-63 6.44187e-63 1.67842e-62 4.33305e-62 1.10831e-61 2.80849e-61 7.0502e-61 1.75313e-60 4.31799e-60 1.05335e-59 2.5448e-59 6.0883e-59 1.44233e-58 3.3832e-58 7.85691e-58 1.80636e-57 4.11101e-57 9.2609e-57 2.06482e-56 4.55616e-56 9.94877e-56 2.1496e-55 4.59542e-55 9.71933e-55 2.03355e-54 4.20862e-54 8.61501e-54 1.74407e-53 3.4916e-53 6.91193e-53 1.35285e-52 2.61778e-52 5.00739e-52 9.4677e-52 1.76926e-51 3.26749e-51 5.96306e-51 1.07527e-50 1.91566e-50 3.37157e-50 5.86163e-50 1.00655e-49 1.70706e-49 2.859e-49 4.7282e-49 7.7207e-49 1.24468e-48 1.98092e-48 3.11207e-48 4.8258e-48 7.38579e-48 1.11559e-47 1.66288e-47 2.44593e-47 3.55002e-47 5.08396e-47 7.18359e-47 1.00147e-46 1.37746e-46 1.86924e-46 2.50262e-46 3.30581e-46 4.30849e-46 5.54062e-46 7.03078e-46 8.80436e-46 1.08814e-45 1.32746e-45 1.59872e-45 1.90115e-45 2.23275e-45 2.59032e-45 2.9694e-45 3.36454e-45 3.76939e-45 4.17707e-45 4.5805e-45 4.97273e-45 5.34728e-45 5.69849e-45 6.02171e-45 6.31348e-45 6.57159e-45 6.79508e-45 6.98409e-45 7.13973e-45 7.26388e-45 7.35894e-45 7.42766e-45 7.47293e-45 7.49763e-45 7.50448e-45 7.49605e-45 7.47462e-45 7.44226e-45 7.40079e-45 7.35183e-45 7.29686e-45 7.2372e-45 7.17413e-45 7.10883e-45 7.04248e-45 6.97622e-45 6.91118e-45 6.84848e-45 6.78922e-45 6.73444e-45 6.68513e-45 6.64217e-45 6.60633e-45 6.57818e-45 6.55811e-45 6.54623e-45 6.54241e-45 6.54617e-45 6.55674e-45 6.57305e-45 6.59371e-45 6.61715e-45 6.6416e-45 6.66526e-45 6.68633e-45 6.7032e-45 6.7145e-45 6.71921e-45 6.71674e-45 6.70696e-45 6.6902e-45 6.66722e-45 6.63912e-45 6.60725e-45 6.57309e-45 6.53813e-45 6.50371e-45 6.471e-45 6.44084e-45 6.41376e-45 6.38994e-45 6.36929e-45 6.35144e-45 6.3359e-45 6.32211e-45 6.30952e-45 6.29772e-45 6.28647e-45 6.27577e-45 6.26587e-45 6.25728e-45 6.25073e-45 6.24714e-45 6.24755e-45 6.25305e-45 6.26473e-45 6.28361e-45 6.31054e-45 6.34622e-45 6.39105e-45 6.44519e-45 6.50845e-45 6.58027e-45 6.65967e-45 6.74522e-45 6.83499e-45 6.92646e-45 7.01654e-45 7.10157e-45 7.17728e-45 7.23891e-45 7.28131e-45 7.29912e-45 7.287e-45 7.23991e-45 7.1534e-45 7.02397e-45 6.8493e-45 6.62858e-45 6.36263e-45 6.05398e-45 5.7069e-45 5.32716e-45 4.92187e-45 4.49906e-45 4.06731e-45 3.63528e-45 3.21131e-45 2.803e-45 2.41689e-45 2.05822e-45 1.73081e-45 1.43701e-45 1.17777e-45 9.52815e-46 7.60777e-46 5.99481e-46 4.6616e-46 3.57697e-46 2.70834e-46 2.02343e-46 1.49166e-46 1.08503e-46 7.78785e-47 5.51569e-47 3.85481e-47 2.65852e-47 1.80939e-47 1.21534e-47 8.05676e-48 5.27164e-48 3.40472e-48 2.17068e-48 1.36622e-48 8.48953e-49 5.20861e-49 3.15551e-49 1.88781e-49 1.11539e-49 6.50899e-50 3.7519e-50 2.13639e-50 1.20181e-50 6.67976e-51 3.66852e-51 1.99097e-51 1.06788e-51 5.66108e-52 2.96645e-52 1.53662e-52 7.86858e-53 3.98242e-53 1.98986e-53 9.76304e-54 4.58802e-54 1.81096e-54 0 
0 1.3567e-72 4.68493e-72 1.47357e-71 4.56152e-71 1.39967e-70 4.25997e-70 1.28605e-69 3.85086e-69 1.14363e-68 3.36835e-68 9.83847e-68 2.84966e-67 8.18443e-67 2.33072e-66 6.58067e-66 1.84207e-65 5.11174e-65 1.40616e-64 3.83419e-64 1.03624e-63 2.7757e-63 7.36842e-63 1.93839e-62 5.05297e-62 1.30515e-61 3.34003e-61 8.46818e-61 2.12691e-60 5.29173e-60 1.30408e-59 3.183e-59 7.69421e-59 1.84185e-58 4.36594e-58 1.0247e-57 2.38112e-57 5.47769e-57 1.24741e-56 2.8118e-56 6.27315e-56 1.38509e-55 3.02641e-55 6.5433e-55 1.39974e-54 2.96242e-54 6.20228e-54 1.28448e-53 2.63108e-53 5.3301e-53 1.0678e-52 2.11523e-52 4.14287e-52 8.02195e-52 1.53551e-51 2.90522e-51 5.43274e-51 1.00399e-50 1.83347e-50 3.30832e-50 5.89781e-50 1.03868e-49 1.80693e-49 3.10477e-49 5.26872e-49 8.82934e-49 1.46103e-48 2.38706e-48 3.85035e-48 6.13105e-48 9.63676e-48 1.49505e-47 2.28916e-47 3.45911e-47 5.1581e-47 7.58973e-47 1.10192e-46 1.5785e-46 2.23095e-46 3.11081e-46 4.27941e-46 5.8079e-46 7.7764e-46 1.02723e-45 1.33875e-45 1.72145e-45 2.18412e-45 2.73452e-45 3.37873e-45 4.12048e-45 4.96054e-45 5.89622e-45 6.92106e-45 8.02471e-45 9.19312e-45 1.0409e-44 1.16524e-44 1.29019e-44 1.41353e-44 1.53312e-44 1.64697e-44 1.75334e-44 1.85085e-44 1.93845e-44 2.01554e-44 2.08187e-44 2.13755e-44 2.18298e-44 2.21879e-44 2.24579e-44 2.26486e-44 2.27692e-44 2.28288e-44 2.28359e-44 2.27983e-44 2.2723e-44 2.26163e-44 2.24835e-44 2.23295e-44 2.21586e-44 2.19745e-44 2.1781e-44 2.15815e-44 2.13794e-44 2.1178e-44 2.09807e-44 2.07907e-44 2.06113e-44 2.04456e-44 2.02965e-44 2.01667e-44 2.00585e-44 1.99736e-44 1.99131e-44 1.98775e-44 1.98662e-44 1.98779e-44 1.99102e-44 1.99599e-44 2.00228e-44 2.00941e-44 2.01685e-44 2.02405e-44 2.03046e-44 2.03561e-44 2.03906e-44 2.04052e-44 2.0398e-44 2.03687e-44 2.03183e-44 2.0249e-44 2.01642e-44 2.0068e-44 1.99649e-44 1.98594e-44 1.97555e-44 1.96569e-44 1.9566e-44 1.94844e-44 1.94127e-44 1.93506e-44 1.92969e-44 1.92502e-44 1.92087e-44 1.91707e-44 1.91351e-44 1.91011e-44 1.90687e-44 1.90386e-44 1.90125e-44 1.89925e-44 1.89815e-44 1.89827e-44 1.89993e-44 1.90347e-44 1.90921e-44 1.91741e-44 1.92828e-44 1.94197e-44 1.95851e-44 1.97788e-44 1.9999e-44 2.02431e-44 2.05068e-44 2.07844e-44 2.10683e-44 2.13494e-44 2.16165e-44 2.18568e-44 2.20556e-44 2.21971e-44 2.22649e-44 2.22425e-44 2.21139e-44 2.18653e-44 2.14855e-44 2.09669e-44 2.03065e-44 1.95064e-44 1.85738e-44 1.75216e-44 1.63672e-44 1.51321e-44 1.38411e-44 1.25204e-44 1.11968e-44 9.89621e-45 8.64214e-45 7.45499e-45 6.35119e-45 5.34276e-45 4.4372e-45 3.6377e-45 2.94354e-45 2.35069e-45 1.85255e-45 1.44069e-45 1.10553e-45 8.37074e-46 6.25369e-46 4.60985e-46 3.35286e-46 2.40618e-46 1.70387e-46 1.19055e-46 8.20885e-47 5.58544e-47 3.75054e-47 2.48552e-47 1.62574e-47 1.0496e-47 6.68909e-48 4.20833e-48 2.61387e-48 1.60297e-48 9.7066e-49 5.80424e-49 3.42765e-49 1.99921e-49 1.15177e-49 6.55483e-50 3.68536e-50 2.04721e-50 1.12369e-50 6.09499e-51 3.26723e-51 1.73103e-51 9.06543e-52 4.69312e-52 2.4018e-52 1.21488e-52 6.06673e-53 2.97491e-53 1.39732e-53 5.51338e-54 0 
0 4.01349e-72 1.3863e-71 4.36179e-71 1.35067e-70 4.14588e-70 1.26227e-69 3.81205e-69 1.14188e-68 3.39244e-68 9.99566e-68 2.92074e-67 8.46319e-67 2.43169e-66 6.92774e-66 1.95685e-65 5.48003e-65 1.52139e-64 4.18699e-64 1.1422e-63 3.08843e-63 8.27668e-63 2.19822e-62 5.78571e-62 1.50898e-61 3.8996e-61 9.9848e-61 2.53287e-60 6.36514e-60 1.58452e-59 3.90704e-59 9.54176e-59 2.30786e-58 5.52785e-58 1.31111e-57 3.07908e-57 7.15933e-57 1.648e-56 3.7553e-56 8.47025e-56 1.89094e-55 4.17787e-55 9.13462e-55 1.97628e-54 4.2305e-54 8.95947e-54 1.87708e-53 3.89007e-53 7.97377e-53 1.61646e-52 3.24056e-52 6.4238e-52 1.25904e-51 2.4396e-51 4.67298e-51 8.84753e-51 1.65563e-50 3.06177e-50 5.59516e-50 1.01028e-49 1.80224e-49 3.17609e-49 5.52884e-49 9.50602e-49 1.61416e-48 2.70666e-48 4.48151e-48 7.32618e-48 1.18238e-47 1.88375e-47 2.96239e-47 4.5981e-47 7.04368e-47 1.06481e-46 1.58845e-46 2.33813e-46 3.39577e-46 4.86586e-46 6.87883e-46 9.59377e-46 1.32e-45 1.79168e-45 2.39912e-45 3.1692e-45 4.13017e-45 5.31035e-45 6.73661e-45 8.43251e-45 1.04163e-44 1.26988e-44 1.52816e-44 1.81557e-44 2.13e-44 2.46817e-44 2.82565e-44 3.197e-44 3.57603e-44 3.95606e-44 4.33027e-44 4.69203e-44 5.03529e-44 5.35481e-44 5.64641e-44 5.9071e-44 6.13514e-44 6.32999e-44 6.49217e-44 6.62314e-44 6.725e-44 6.80035e-44 6.85203e-44 6.88296e-44 6.89598e-44 6.89371e-44 6.87856e-44 6.85265e-44 6.81781e-44 6.77565e-44 6.72756e-44 6.67477e-44 6.61839e-44 6.55946e-44 6.49897e-44 6.43788e-44 6.37716e-44 6.31776e-44 6.26066e-44 6.20678e-44 6.15706e-44 6.11236e-44 6.07347e-44 6.04106e-44 6.01565e-44 5.99759e-44 5.98698e-44 5.98369e-44 5.98729e-44 5.9971e-44 6.01212e-44 6.03111e-44 6.05263e-44 6.07508e-44 6.0968e-44 6.11618e-44 6.13173e-44 6.14221e-44 6.14669e-44 6.14463e-44 6.13592e-44 6.12086e-44 6.10014e-44 6.07476e-44 6.04596e-44 6.01509e-44 5.98351e-44 5.95244e-44 5.92293e-44 5.89576e-44 5.87139e-44 5.84998e-44 5.83144e-44 5.81543e-44 5.80149e-44 5.7891e-44 5.77777e-44 5.7671e-44 5.7569e-44 5.74716e-44 5.73811e-44 5.73023e-44 5.72419e-44 5.72084e-44 5.72115e-44 5.72614e-44 5.73681e-44 5.75412e-44 5.77889e-44 5.81177e-44 5.85321e-44 5.90339e-44 5.96222e-44 6.02927e-44 6.10374e-44 6.18441e-44 6.26959e-44 6.35709e-44 6.44416e-44 6.52746e-44 6.6031e-44 6.66669e-44 6.71342e-44 6.73822e-44 6.73601e-44 6.7019e-44 6.63152e-44 6.52133e-44 6.3689e-44 6.17313e-44 5.93451e-44 5.65515e-44 5.33877e-44 4.99064e-44 4.61726e-44 4.22612e-44 3.82527e-44 3.4229e-44 3.02694e-44 2.64469e-44 2.28243e-44 1.94529e-44 1.63702e-44 1.35999e-44 1.11524e-44 9.02632e-45 7.20966e-45 5.68263e-45 4.41965e-45 3.39166e-45 2.56807e-45 1.91852e-45 1.41412e-45 1.02841e-45 7.37933e-46 5.22451e-46 3.64977e-46 2.5159e-46 1.71139e-46 1.14882e-46 7.61082e-47 4.97634e-47 3.21157e-47 2.04589e-47 1.28659e-47 7.98767e-48 4.89619e-48 2.9634e-48 1.77113e-48 1.04539e-48 6.09409e-49 3.50899e-49 1.99589e-49 1.12153e-49 6.22653e-50 3.4157e-50 1.85161e-50 9.91974e-51 5.25252e-51 2.7491e-51 1.42234e-51 7.27471e-52 3.67747e-52 1.83532e-52 8.99458e-53 4.22257e-53 1.66546e-53 0 