# vtk DataFile Version 3.0
Gray-Scott Simulation Output
ASCII
DATASET STRUCTURED_POINTS
DIMENSIONS 256 256 1
SPACING 1.0 1.0 1.0
ORIGIN 0 0 0
POINT_DATA 65536
SCALARS u double
LOOKUP_TABLE default
0 0 0 0 0 0 0 0 0 0 0 0 0 0 0 0 0 0 0 0 0 0 0 0 0 0 0 0 0 0 0 0 0 0 0 0 0 0 0 0 0 0 0 0 0 0 0 0 0 0 0 0 0 0 0 0 0 0 0 0 0 0 0 0 0 0 0 0 0 0 0 0 0 0 0 0 0 0 0 0 0 0 0 0 0 0 0 0 0 0 0 0 0 0 0 0 0 0 0 0 0 0 0 0 0 0 0 0 0 0 0 0 0 0 0 0 0 0 0 0 0 0 0 0 0 0 0 0 0 0 0 0 0 0 0 0 0 0 0 0 0 0 0 0 0 0 0 0 0 0 0 0 0 0 0 0 0 0 0 0 0 0 0 0 0 0 0 0 0 0 0 0 0 0 0 0 0 0 0 0 0 0 0 0 0 0 0 0 0 0 0 0 0 0 0 0 0 0 0 0 0 0 0 0 0 0 0 0 0 0 0 0 0 0 0 0 0 0 0 0 0 0 0 0 0 0 0 0 0 0 0 0 0 0 0 0 0 0 0 0 0 0 0 0 0 0 0 0 0 0 0 0 0 0 0 0 
0 0 0 0 0 3.26083e-322 6.70101e-320 1.34573e-317 2.64945e-315 5.11368e-313 9.67549e-311 1.79456e-308 3.26261e-306 5.81404e-304 1.01548e-301 1.73828e-299 2.91605e-297 4.79371e-295 7.72177e-293 1.2187e-290 1.88443e-288 2.85449e-286 4.23546e-284 6.15542e-282 8.76104e-280 1.22109e-277 1.66644e-275 2.22651e-273 2.91209e-271 3.72797e-269 4.67056e-267 5.72578e-265 6.8676e-263 8.05774e-261 9.24676e-259 1.03767e-256 1.13855e-254 1.22118e-252 1.28016e-250 1.31135e-248 1.31235e-246 1.28281e-244 1.22451e-242 1.14115e-240 1.03799e-238 9.21312e-237 7.97739e-235 6.73649e-233 5.54622e-231 4.45056e-229 3.47975e-227 2.65001e-225 1.96498e-223 1.41815e-221 9.95782e-220 6.80003e-218 4.51413e-216 2.91178e-214 1.82413e-212 1.10931e-210 6.54516e-209 3.7447e-207 2.0763e-205 1.11499e-203 5.79536e-202 2.91351e-200 1.41567e-198 6.64324e-197 3.00826e-195 1.31337e-193 5.52319e-192 2.23507e-190 8.69416e-189 3.24715e-187 1.16301e-185 3.98931e-184 1.30865e-182 4.09912e-181 1.22397e-179 3.47753e-178 9.3826e-177 2.39871e-175 5.79674e-174 1.32063e-172 2.82801e-171 5.67332e-170 1.06224e-168 1.84838e-167 2.97465e-166 4.40276e-165 5.95422e-164 7.30118e-163 8.04333e-162 7.87228e-161 6.75116e-160 4.98496e-159 3.09779e-158 1.57129e-157 6.23416e-157 1.82014e-156 3.5909e-156 4.45351e-156 4.39626e-156 4.59075e-156 4.18643e-156 3.85755e-156 3.93183e-156 5.4571e-156 6.94261e-156 7.10682e-156 6.38133e-156 5.50314e-156 5.80796e-156 6.90825e-156 7.255e-156 6.73008e-156 5.80305e-156 6.22566e-156 6.37827e-156 5.51835e-156 4.2454e-156 4.07013e-156 5.02915e-156 5.87472e-156 6.60562e-156 6.16018e-156 5.26972e-156 4.84229e-156 3.92797e-156 3.21285e-156 3.54593e-156 4.32876e-156 4.12158e-156 4.55839e-156 5.55999e-156 5.42939e-156 4.49722e-156 3.78189e-156 2.74538e-156 2.4829e-156 3.02738e-156 3.95037e-156 5.14396e-156 5.02641e-156 4.93934e-156 5.53636e-156 6.09559e-156 6.59397e-156 6.6207e-156 6.03206e-156 6.02146e-156 5.53124e-156 4.84462e-156 3.42729e-156 2.70333e-156 2.83372e-156 2.61547e-156 2.69675e-156 3.93011e-156 5.18697e-156 5.30107e-156 5.29181e-156 4.51087e-156 3.32597e-156 3.0167e-156 4.04806e-156 5.39064e-156 5.52554e-156 4.29443e-156 3.21361e-156 3.51172e-156 4.37978e-156 4.46921e-156 3.8457e-156 3.8411e-156 3.31201e-156 2.62395e-156 2.93404e-156 3.67435e-156 3.16329e-156 3.78121e-156 5.75853e-156 6.49185e-156 5.90604e-156 4.53489e-156 3.08839e-156 3.01713e-156 4.54041e-156 6.15805e-156 6.17856e-156 5.44999e-156 5.25414e-156 6.27436e-156 7.44577e-156 7.72435e-156 7.58453e-156 7.48838e-156 6.87673e-156 5.78965e-156 5.53211e-156 4.33527e-156 2.16817e-156 7.371e-157 1.84902e-157 3.63331e-158 5.83242e-159 7.88386e-160 9.17903e-161 9.36665e-162 8.49334e-163 6.9201e-164 5.11288e-165 3.45199e-166 2.14363e-167 1.23122e-168 6.57241e-170 3.27464e-171 1.52853e-172 6.70656e-174 2.77415e-175 1.08473e-176 4.01907e-178 1.41413e-179 4.73458e-181 1.5111e-182 4.60522e-184 1.34223e-185 3.74662e-187 1.00291e-188 2.57768e-190 6.36848e-192 1.51406e-193 3.46725e-195 7.65536e-197 1.63104e-198 3.35616e-200 6.6747e-202 1.28396e-203 2.39054e-205 4.31076e-207 7.53339e-209 1.27661e-210 2.09893e-212 3.34994e-214 5.19269e-216 7.82113e-218 1.14516e-219 1.63067e-221 2.25916e-223 3.04637e-225 3.99973e-227 5.11501e-229 6.37349e-231 7.74043e-233 9.16404e-235 0 
0 0 0 0 3.35965e-322 6.98362e-320 1.41728e-317 2.82033e-315 5.50264e-313 1.05258e-310 1.97396e-308 3.6291e-306 6.54059e-304 1.15551e-301 2.00097e-299 3.39621e-297 5.64949e-295 9.20989e-293 1.47129e-290 2.30308e-288 3.53223e-286 5.30742e-284 7.81216e-282 1.12634e-279 1.59052e-277 2.19953e-275 2.97847e-273 3.94893e-271 5.12548e-269 6.51183e-267 8.09704e-265 9.85242e-263 1.17297e-260 1.36614e-258 1.5563e-256 1.73385e-254 1.88873e-252 2.01136e-250 2.09357e-248 2.12949e-246 2.11624e-244 2.05427e-242 1.9474e-240 1.80242e-238 1.62835e-236 1.43556e-234 1.23469e-232 1.03569e-230 8.47057e-229 6.75258e-227 5.24518e-225 3.96859e-223 2.92377e-221 2.09662e-219 1.46283e-217 9.92636e-216 6.54817e-214 4.19748e-212 2.61329e-210 1.57944e-208 9.26201e-207 5.26689e-205 2.90265e-203 1.54939e-201 8.00516e-200 4.00057e-198 1.93241e-196 9.01501e-195 4.05849e-193 1.76163e-191 7.36565e-190 2.9636e-188 1.14625e-186 4.2569e-185 1.5161e-183 5.1714e-182 1.687e-180 5.25507e-179 1.56052e-177 4.40955e-176 1.18328e-174 3.0088e-173 7.23214e-172 1.63888e-170 3.49095e-169 6.96642e-168 1.29754e-166 2.24611e-165 3.59613e-164 5.2954e-163 7.12509e-162 8.69302e-161 9.52899e-160 9.28048e-159 7.92023e-158 5.82034e-157 3.60014e-156 1.81795e-155 7.18283e-155 2.08958e-154 4.11264e-154 5.10176e-154 5.04201e-154 5.26099e-154 4.80037e-154 4.42505e-154 4.51598e-154 6.25869e-154 7.95692e-154 8.14709e-154 7.31761e-154 6.31592e-154 6.66386e-154 7.91945e-154 8.31731e-154 7.71775e-154 6.66252e-154 7.13905e-154 7.30988e-154 6.32585e-154 4.87288e-154 4.67224e-154 5.76653e-154 6.73666e-154 7.5701e-154 7.06232e-154 6.04483e-154 5.5496e-154 4.50405e-154 3.68821e-154 4.06774e-154 4.95894e-154 4.72907e-154 5.2296e-154 6.37043e-154 6.22189e-154 5.15729e-154 4.33448e-154 3.15142e-154 2.85058e-154 3.47302e-154 4.53153e-154 5.89305e-154 5.76398e-154 5.66669e-154 6.34818e-154 6.99009e-154 7.56041e-154 7.59066e-154 6.92088e-154 6.90341e-154 6.34218e-154 5.55188e-154 3.93306e-154 3.10335e-154 3.24661e-154 2.99945e-154 3.09698e-154 4.50611e-154 5.94237e-154 6.07826e-154 6.0646e-154 5.17049e-154 3.81745e-154 3.46471e-154 4.64248e-154 6.17549e-154 6.32987e-154 4.92504e-154 3.6913e-154 4.02897e-154 5.01792e-154 5.12117e-154 4.41281e-154 4.40158e-154 3.79622e-154 3.01318e-154 3.36673e-154 4.20823e-154 3.63389e-154 4.3438e-154 6.59901e-154 7.43913e-154 6.76905e-154 5.19927e-154 3.54724e-154 3.46675e-154 5.20683e-154 7.05447e-154 7.08164e-154 6.25145e-154 6.03002e-154 7.19585e-154 8.53549e-154 8.85765e-154 8.69948e-154 8.58685e-154 7.8856e-154 6.64473e-154 6.34046e-154 4.96724e-154 2.49004e-154 8.4955e-155 2.13995e-155 4.22374e-156 6.81169e-157 9.2515e-158 1.08237e-158 1.10994e-159 1.01148e-160 8.28278e-162 6.15083e-163 4.17408e-164 2.60544e-165 1.50425e-166 8.07203e-168 4.04304e-169 1.89723e-170 8.36878e-172 3.48035e-173 1.36823e-174 5.0971e-176 1.80327e-177 6.07073e-179 1.94829e-180 5.97076e-182 1.75e-183 4.91243e-185 1.32245e-186 3.4184e-188 8.49413e-190 2.0311e-191 4.67837e-193 1.03899e-194 2.22671e-196 4.609e-198 9.221e-200 1.78441e-201 3.34239e-203 6.06381e-205 1.06618e-206 1.81786e-208 3.00733e-210 4.82967e-212 7.53335e-214 1.14182e-215 1.68246e-217 2.41108e-219 3.36187e-221 4.56267e-223 6.02961e-225 7.76152e-227 9.73505e-229 1.19016e-230 1.41849e-232 0 
0 0 0 3.40905e-322 7.12838e-320 1.46198e-317 2.94023e-315 5.79825e-313 1.12118e-310 2.12571e-308 3.95149e-306 7.20164e-304 1.28674e-301 2.25383e-299 3.86987e-297 6.51312e-295 1.07442e-292 1.73707e-290 2.75226e-288 4.27323e-286 6.50105e-284 9.69019e-282 1.41502e-279 2.0241e-277 2.83594e-275 3.89145e-273 5.22907e-271 6.87997e-269 8.86223e-267 1.11747e-264 1.37915e-262 1.66572e-260 1.96855e-258 2.27602e-256 2.57407e-254 2.84712e-252 3.07932e-250 3.25603e-248 3.36528e-246 3.39912e-244 3.35454e-242 3.23389e-240 3.04469e-238 2.79887e-236 2.51152e-234 2.19933e-232 1.87899e-230 1.56573e-228 1.27215e-226 1.00752e-224 7.77538e-223 5.84511e-221 4.27871e-219 3.04873e-217 2.1137e-215 1.4253e-213 9.34372e-212 5.95236e-210 3.68305e-208 2.21237e-206 1.28947e-204 7.28831e-203 3.99256e-201 2.11845e-199 1.08803e-197 5.40538e-196 2.59568e-194 1.20387e-192 5.38836e-191 2.32541e-189 9.66726e-188 3.86754e-186 1.48742e-184 5.49285e-183 1.94535e-181 6.59872e-180 2.14073e-178 6.63186e-177 1.95862e-175 5.50442e-174 1.46911e-172 3.71559e-171 8.88347e-170 2.00243e-168 4.2429e-167 8.42273e-166 1.56064e-164 2.68761e-163 4.28094e-162 6.27176e-161 8.39626e-160 1.01927e-158 1.11176e-157 1.07747e-156 9.15108e-156 6.69302e-155 4.12083e-154 2.07166e-153 8.15143e-153 2.36289e-152 4.63959e-152 5.75678e-152 5.69586e-152 5.93871e-152 5.4218e-152 4.99996e-152 5.10909e-152 7.07046e-152 8.98278e-152 9.19964e-152 8.2655e-152 7.14003e-152 7.53124e-152 8.94262e-152 9.39227e-152 8.71776e-152 7.53456e-152 8.06376e-152 8.25202e-152 7.14283e-152 5.50922e-152 5.28299e-152 6.51292e-152 7.60923e-152 8.5454e-152 7.97519e-152 6.82995e-152 6.2649e-152 5.08717e-152 4.17037e-152 4.59634e-152 5.59575e-152 5.3447e-152 5.90967e-152 7.18962e-152 7.02318e-152 5.82554e-152 4.89335e-152 3.56323e-152 3.22362e-152 3.92453e-152 5.12021e-152 6.65007e-152 6.51067e-152 6.40364e-152 7.16993e-152 7.89569e-152 8.53858e-152 8.57232e-152 7.82159e-152 7.79593e-152 7.16298e-152 6.26705e-152 4.44576e-152 3.5091e-152 3.66392e-152 3.38821e-152 3.50323e-152 5.08906e-152 6.70575e-152 6.86487e-152 6.84607e-152 5.83773e-152 4.31585e-152 3.91953e-152 5.24435e-152 6.96857e-152 7.14261e-152 5.56357e-152 4.17637e-152 4.55309e-152 5.66287e-152 5.78029e-152 4.98757e-152 4.96824e-152 4.28598e-152 3.40822e-152 3.80527e-152 4.74753e-152 4.11187e-152 4.91522e-152 7.44887e-152 8.39687e-152 7.64188e-152 5.87162e-152 4.01312e-152 3.92359e-152 5.88154e-152 7.96029e-152 7.99506e-152 7.06324e-152 6.81667e-152 8.12896e-152 9.63806e-152 1.0005e-151 9.82877e-152 9.69891e-152 8.907e-152 7.51172e-152 7.15803e-152 5.60607e-152 2.81679e-152 9.6444e-153 2.43937e-153 4.83605e-154 7.8352e-155 1.06921e-155 1.25696e-156 1.2953e-157 1.18626e-158 9.76272e-160 7.28654e-161 4.97003e-162 3.11822e-163 1.80963e-164 9.7614e-166 4.91487e-167 2.31853e-168 1.02815e-169 4.2987e-171 1.69905e-172 6.3638e-174 2.26368e-175 7.66248e-177 2.4727e-178 7.61993e-180 2.24583e-181 6.33969e-183 1.71632e-184 4.46172e-186 1.115e-187 2.68151e-189 6.21223e-191 1.38767e-192 2.99139e-194 6.22829e-196 1.25345e-197 2.44011e-199 4.598e-201 8.39214e-203 1.48453e-204 2.54664e-206 4.23889e-208 6.84968e-210 1.07508e-211 1.6397e-213 2.43132e-215 3.5064e-217 4.92037e-219 6.72083e-221 8.93918e-223 1.15818e-224 1.46221e-226 1.79945e-228 2.15893e-230 0 
0 0 3.35965e-322 7.12838e-320 1.47716e-317 3.00202e-315 5.98307e-313 1.16936e-310 2.24114e-308 4.21184e-306 7.76139e-304 1.40234e-301 2.48421e-299 4.31444e-297 7.34576e-295 1.22602e-292 2.00576e-290 3.21627e-288 5.05455e-286 7.78461e-284 1.17484e-281 1.73728e-279 2.51693e-277 3.57221e-275 4.96622e-273 6.76222e-271 9.01734e-269 1.17745e-266 1.5053e-264 1.88395e-262 2.3079e-260 2.76698e-258 3.24618e-256 3.72604e-254 4.18369e-252 4.59448e-250 4.93399e-248 5.18044e-246 5.31688e-244 5.3331e-242 5.22692e-240 5.00446e-238 4.67968e-236 4.27284e-234 3.80847e-232 3.31287e-230 2.81163e-228 2.3275e-226 1.87875e-224 1.47829e-222 1.1335e-220 8.46655e-219 6.15826e-217 4.36027e-215 3.00403e-213 2.01303e-211 1.31149e-209 8.30333e-208 5.10628e-206 3.04864e-204 1.76615e-202 9.92263e-201 5.40321e-199 2.84993e-197 1.45509e-195 7.18655e-194 3.43089e-192 1.58203e-190 7.04017e-189 3.02088e-187 1.2487e-185 4.9674e-184 1.89967e-182 6.97604e-181 2.45691e-179 8.28793e-178 2.67398e-176 8.23859e-175 2.41994e-173 6.76422e-172 1.79567e-170 4.51729e-169 1.0743e-167 2.40884e-166 5.07731e-165 1.00267e-163 1.84825e-162 3.16658e-161 5.01817e-160 7.31465e-159 9.7433e-158 1.17691e-156 1.27739e-155 1.23197e-154 1.04131e-153 7.58018e-153 4.64564e-152 2.32521e-151 9.1115e-151 2.63183e-150 5.15558e-150 6.39848e-150 6.33793e-150 6.60323e-150 6.03183e-150 5.56484e-150 5.69334e-150 7.86776e-150 9.98888e-150 1.02324e-149 9.19618e-150 7.95057e-150 8.38384e-150 9.94659e-150 1.04471e-149 9.69973e-150 8.39288e-150 8.9717e-150 9.17592e-150 7.94438e-150 6.13519e-150 5.88393e-150 7.24564e-150 8.46592e-150 9.50174e-150 8.87102e-150 7.60126e-150 6.96635e-150 5.65959e-150 4.64477e-150 5.11571e-150 6.2197e-150 5.94984e-150 6.57798e-150 7.99251e-150 7.80878e-150 6.48163e-150 5.44146e-150 3.9684e-150 3.59078e-150 4.36824e-150 5.69858e-150 7.39187e-150 7.24378e-150 7.12786e-150 7.97663e-150 8.78488e-150 9.49871e-150 9.5358e-150 8.70692e-150 8.67186e-150 7.96867e-150 6.96829e-150 4.94989e-150 3.90833e-150 4.07288e-150 3.76994e-150 3.90324e-150 5.66122e-150 7.45376e-150 7.63695e-150 7.61236e-150 6.49224e-150 4.8061e-150 4.36749e-150 5.83537e-150 7.74559e-150 7.93887e-150 6.19062e-150 4.65423e-150 5.06819e-150 6.2949e-150 6.42641e-150 5.55257e-150 5.52378e-150 4.76637e-150 3.79716e-150 4.23641e-150 5.27572e-150 4.58289e-150 5.47834e-150 8.28217e-150 9.3358e-150 8.49788e-150 6.5315e-150 4.47204e-150 4.37394e-150 6.54403e-150 8.84775e-150 8.89092e-150 7.86074e-150 7.59032e-150 9.04536e-150 1.07199e-149 1.11315e-149 1.09381e-149 1.07907e-149 9.9099e-150 8.36444e-150 7.95991e-150 6.23223e-150 3.13859e-150 1.07841e-150 2.7388e-151 5.45359e-152 8.87628e-153 1.21699e-153 1.43757e-154 1.48865e-155 1.37006e-156 1.13316e-157 8.5001e-159 5.82721e-160 3.67472e-161 2.14358e-162 1.16227e-163 5.88259e-165 2.78963e-166 1.24361e-167 5.22717e-169 2.07709e-170 7.82166e-172 2.79734e-173 9.52053e-175 3.08915e-176 9.57212e-178 2.83686e-179 8.05281e-181 2.19236e-182 5.73142e-184 1.44044e-185 3.48399e-187 8.11777e-189 1.82382e-190 3.95449e-192 8.28177e-194 1.67654e-195 3.28309e-197 6.22338e-199 1.14269e-200 2.03357e-202 3.50971e-204 5.87764e-206 9.55622e-208 1.50916e-209 2.31611e-211 3.45584e-213 5.01539e-215 7.08259e-217 9.7361e-219 1.30331e-220 1.69954e-222 2.15967e-224 2.6752e-226 3.23084e-228 0 
0 3.26083e-322 6.98263e-320 1.46189e-317 3.00192e-315 6.04584e-313 1.19419e-310 2.31334e-308 4.39478e-306 8.18748e-304 1.49575e-301 2.67946e-299 4.70641e-297 8.10521e-295 1.3685e-292 2.26519e-290 3.67549e-288 5.84582e-286 9.11302e-284 1.3923e-281 2.08457e-279 3.05828e-277 4.39617e-275 6.19106e-273 8.5409e-271 1.1541e-268 1.52733e-266 1.97934e-264 2.51162e-262 3.12013e-260 3.7942e-258 4.51578e-256 5.25949e-254 5.99359e-252 6.68175e-250 7.28584e-248 7.76921e-246 8.10031e-244 8.256e-242 8.22417e-240 8.0053e-238 7.61254e-236 7.07047e-234 6.41253e-232 5.67758e-230 4.9061e-228 4.13647e-226 3.40188e-224 2.72819e-222 2.13285e-220 1.62493e-218 1.20601e-216 8.71667e-215 6.13299e-213 4.19901e-211 2.79636e-209 1.81062e-207 1.13933e-205 6.96389e-204 4.13257e-202 2.37972e-200 1.329e-198 7.19392e-197 3.77206e-195 1.91462e-193 9.401e-192 4.46209e-190 2.04568e-188 9.05135e-187 3.86177e-185 1.58726e-183 6.27869e-182 2.38772e-180 8.71956e-179 3.05401e-177 1.02455e-175 3.28751e-174 1.00739e-172 2.94307e-171 8.18235e-170 2.16055e-168 5.4064e-167 1.27897e-165 2.85275e-164 5.98168e-163 1.17516e-161 2.15507e-160 3.67341e-159 5.79186e-158 8.39995e-157 1.11331e-155 1.33814e-154 1.44527e-153 1.38714e-152 1.16687e-151 8.45445e-151 5.15782e-150 2.57026e-149 1.00306e-148 2.88713e-148 5.64259e-148 7.00449e-148 6.94599e-148 7.23143e-148 6.6093e-148 6.10017e-148 6.24866e-148 8.623e-148 1.09403e-147 1.12096e-147 1.00774e-147 8.7196e-148 9.19222e-148 1.08965e-147 1.14454e-147 1.06297e-147 9.20795e-148 9.83142e-148 1.00495e-147 8.70269e-148 6.7292e-148 6.45438e-148 7.9393e-148 9.27703e-148 1.04059e-147 9.7187e-148 8.33206e-148 7.62957e-148 6.20147e-148 5.09507e-148 5.60788e-148 6.80905e-148 6.52356e-148 7.21141e-148 8.75113e-148 8.55135e-148 7.10282e-148 5.95976e-148 4.35295e-148 3.93942e-148 4.7888e-148 6.2466e-148 8.0926e-148 7.9379e-148 7.81432e-148 8.74031e-148 9.62684e-148 1.04075e-147 1.04477e-147 9.54629e-148 9.50082e-148 8.73131e-148 7.63123e-148 5.42804e-148 4.28729e-148 4.45924e-148 4.13139e-148 4.28326e-148 6.20273e-148 8.16033e-148 8.36774e-148 8.33684e-148 7.1113e-148 5.27129e-148 4.79319e-148 6.39505e-148 8.47947e-148 8.69089e-148 6.78447e-148 5.10849e-148 5.55648e-148 6.89198e-148 7.03706e-148 6.0883e-148 6.04886e-148 5.22068e-148 4.16664e-148 4.64525e-148 5.77439e-148 5.0308e-148 6.01384e-148 9.06994e-148 1.02233e-147 9.3073e-148 7.15599e-148 4.90823e-148 4.80238e-148 7.17135e-148 9.68594e-148 9.73811e-148 8.61634e-148 8.32426e-148 9.91331e-148 1.17435e-147 1.21982e-147 1.19892e-147 1.18246e-147 1.08596e-147 9.17348e-148 8.71824e-148 6.82392e-148 3.44438e-148 1.18761e-148 3.02842e-149 6.0567e-150 9.9029e-151 1.36411e-151 1.61906e-152 1.68473e-153 1.55813e-154 1.29511e-155 9.76353e-157 6.72714e-158 4.26381e-159 2.49995e-160 1.36249e-161 6.93179e-163 3.30436e-164 1.48082e-165 6.25717e-167 2.49962e-168 9.46319e-170 3.40266e-171 1.16435e-172 3.7986e-174 1.1835e-175 3.52686e-177 1.00671e-178 2.75604e-180 7.24552e-182 1.83127e-183 4.45445e-185 1.04383e-186 2.35867e-188 5.14379e-190 1.08352e-191 2.2063e-193 4.34596e-195 8.287e-197 1.53068e-198 2.7404e-200 4.75817e-202 8.01687e-204 1.3114e-205 2.08377e-207 3.21777e-209 4.83112e-211 7.05529e-213 1.00262e-214 1.38701e-216 1.86856e-218 2.45233e-220 3.13646e-222 3.9105e-224 4.75371e-226 0 
0 6.70002e-320 1.4171e-317 2.93994e-315 5.98267e-313 1.19415e-310 2.33787e-308 4.48912e-306 8.45411e-304 1.56143e-301 2.82819e-299 5.02345e-297 8.74949e-295 1.49426e-292 2.5021e-290 4.10765e-288 6.61092e-286 1.04299e-283 1.61291e-281 2.44468e-279 3.63142e-277 5.28609e-275 7.53972e-273 1.05365e-270 1.44248e-268 1.93441e-266 2.54076e-264 3.26816e-262 4.11634e-260 5.07609e-258 6.12772e-256 7.24029e-254 8.37213e-252 9.47261e-250 1.04854e-247 1.1353e-245 1.20217e-243 1.24471e-241 1.25989e-239 1.24645e-237 1.20504e-235 1.13819e-233 1.05006e-231 9.46007e-230 8.32047e-228 7.14265e-226 5.98288e-224 4.88851e-222 3.89517e-220 3.0257e-218 2.2905e-216 1.68925e-214 1.21328e-212 8.48334e-211 5.7722e-209 3.82038e-207 2.45852e-205 1.53761e-203 9.34151e-202 5.51023e-200 3.15409e-198 1.75101e-196 9.42238e-195 4.91157e-193 2.47848e-191 1.20991e-189 5.70967e-188 2.60266e-186 1.14502e-184 4.85762e-183 1.98535e-181 7.8095e-180 2.95336e-178 1.07256e-176 3.73598e-175 1.24649e-173 3.97795e-172 1.21239e-170 3.52294e-169 9.74225e-168 2.5588e-166 6.36919e-165 1.49884e-163 3.32575e-162 6.93739e-161 1.35591e-159 2.47383e-158 4.19535e-157 6.58146e-156 9.49737e-155 1.25251e-153 1.49805e-152 1.61011e-151 1.5379e-150 1.28756e-149 9.28546e-149 5.63912e-148 2.79787e-147 1.08746e-146 3.11912e-146 6.082e-146 7.55167e-146 7.49689e-146 7.79935e-146 7.13223e-146 6.58564e-146 6.7541e-146 9.3075e-146 1.18008e-145 1.2094e-145 1.08758e-145 9.41798e-146 9.92573e-146 1.17563e-145 1.23489e-145 1.14723e-145 9.94897e-146 1.06103e-145 1.08394e-145 9.38887e-146 7.26878e-146 6.97273e-146 8.56752e-146 1.00117e-145 1.12233e-145 1.0486e-145 8.99461e-146 8.22928e-146 6.69218e-146 5.50421e-146 6.05415e-146 7.34131e-146 7.04411e-146 7.78593e-146 9.43654e-146 9.22258e-146 7.66549e-146 6.42849e-146 4.70232e-146 4.25635e-146 5.17027e-146 6.74349e-146 8.72552e-146 8.56665e-146 8.43696e-146 9.43194e-146 1.03896e-145 1.12305e-145 1.12733e-145 1.03079e-145 1.02513e-145 9.42188e-146 8.23059e-146 5.86208e-146 4.63162e-146 4.80826e-146 4.45884e-146 4.62892e-146 6.69298e-146 8.79849e-146 9.02941e-146 8.99187e-146 7.67132e-146 5.69382e-146 5.18055e-146 6.90214e-146 9.14218e-146 9.36996e-146 7.32256e-146 5.52199e-146 5.99942e-146 7.43132e-146 7.58894e-146 6.57443e-146 6.52347e-146 5.63161e-146 4.50267e-146 5.01628e-146 6.2245e-146 5.4387e-146 6.50152e-146 9.78216e-146 1.10254e-145 1.00393e-145 7.72135e-146 5.30522e-146 5.19276e-146 7.73965e-146 1.04428e-145 1.05043e-145 9.30137e-146 8.99071e-146 1.06998e-145 1.26698e-145 1.31644e-145 1.29421e-145 1.27611e-145 1.17199e-145 9.9082e-146 9.40413e-146 7.35859e-146 3.72262e-146 1.288e-146 3.29769e-147 6.62393e-148 1.08795e-148 1.50563e-149 1.79552e-150 1.87736e-151 1.74477e-152 1.4574e-153 1.10417e-154 7.64598e-156 4.87071e-157 2.87034e-158 1.57239e-159 8.04095e-161 3.85302e-162 1.73573e-163 7.37289e-165 2.96093e-166 1.12693e-167 4.07381e-169 1.40152e-170 4.59716e-172 1.44012e-173 4.31514e-175 1.23851e-176 3.40948e-178 9.01346e-180 2.2909e-181 5.604e-183 1.32068e-184 3.00131e-186 6.58292e-188 1.39469e-189 2.85647e-191 5.65961e-193 1.08555e-194 2.017e-196 3.63261e-198 6.3452e-200 1.07554e-201 1.77006e-203 2.82977e-205 4.39664e-207 6.64194e-209 9.76023e-211 1.39571e-212 1.943e-214 2.63422e-216 3.4793e-218 4.47857e-220 5.62e-222 6.87637e-224 0 
0 1.34546e-317 2.81986e-315 5.79747e-313 1.16924e-310 2.31318e-308 4.48896e-306 8.54469e-304 1.59531e-301 2.9213e-299 5.24648e-297 9.24059e-295 1.59606e-292 2.70327e-290 4.4895e-288 7.31045e-286 1.16708e-283 1.82654e-281 2.80223e-279 4.21392e-277 6.21065e-275 8.97055e-273 1.26967e-270 1.76078e-268 2.39232e-266 3.18409e-264 4.15099e-262 5.29987e-260 6.62631e-258 8.1117e-256 9.72135e-254 1.14039e-251 1.30925e-249 1.47085e-247 1.61667e-245 1.73821e-243 1.82782e-241 1.87947e-239 1.88939e-237 1.85654e-235 1.78275e-233 1.67257e-231 1.53279e-229 1.37178e-227 1.1986e-225 1.02222e-223 8.5069e-222 6.90608e-220 5.46758e-218 4.22012e-216 3.17453e-214 2.32653e-212 1.66058e-210 1.15389e-208 7.80292e-207 5.13282e-205 3.28303e-203 2.04087e-201 1.23245e-199 7.22638e-198 4.11188e-196 2.26927e-194 1.21396e-192 6.2911e-191 3.15622e-189 1.5319e-187 7.18774e-186 3.25776e-184 1.42513e-182 6.01192e-181 2.44339e-179 9.55777e-178 3.59454e-176 1.29824e-174 4.49738e-173 1.49238e-171 4.73694e-170 1.43596e-168 4.15032e-167 1.14163e-165 2.98268e-164 7.38536e-163 1.72891e-161 3.81638e-160 7.91985e-159 1.54001e-157 2.79544e-156 4.71684e-155 7.36244e-154 1.05715e-152 1.38729e-151 1.65113e-150 1.76604e-149 1.67877e-148 1.39887e-147 1.00415e-146 6.07075e-146 2.99899e-145 1.16094e-144 3.31833e-144 6.4557e-144 8.01748e-144 7.96806e-144 8.28367e-144 7.57919e-144 7.00137e-144 7.18905e-144 9.89322e-144 1.25349e-143 1.28493e-143 1.15585e-143 1.00172e-143 1.05543e-143 1.24906e-143 1.31208e-143 1.2193e-143 1.05857e-143 1.12763e-143 1.15132e-143 9.97477e-144 7.73186e-144 7.41782e-144 9.10454e-144 1.06399e-143 1.19205e-143 1.11414e-143 9.56175e-144 8.74083e-144 7.1116e-144 5.85547e-144 6.43624e-144 7.79457e-144 7.49016e-144 8.27801e-144 1.00206e-143 9.79487e-144 8.14655e-144 6.8284e-144 5.00224e-144 4.52864e-144 5.49703e-144 7.16887e-144 9.26461e-144 9.10423e-144 8.9703e-144 1.00232e-143 1.10418e-143 1.19338e-143 1.19789e-143 1.09605e-143 1.08924e-143 1.00121e-143 8.74176e-144 6.23426e-144 4.92724e-144 5.10557e-144 4.73885e-144 4.92611e-144 7.11186e-144 9.34197e-144 9.59482e-144 9.55056e-144 8.14931e-144 6.05641e-144 5.51375e-144 7.33583e-144 9.70644e-144 9.94813e-144 7.78283e-144 5.87788e-144 6.37888e-144 7.89074e-144 8.05936e-144 6.99106e-144 6.9281e-144 5.98227e-144 4.79154e-144 5.33433e-144 6.60754e-144 5.78998e-144 6.92151e-144 1.03896e-143 1.17093e-143 1.06638e-143 8.20438e-144 5.64682e-144 5.52917e-144 8.22562e-144 1.10873e-143 1.11581e-143 9.88775e-144 9.5624e-144 1.13727e-143 1.34609e-143 1.39907e-143 1.37577e-143 1.35619e-143 1.24557e-143 1.05386e-143 9.98942e-144 7.81426e-144 3.96194e-144 1.37552e-144 3.53594e-145 7.1332e-146 1.17688e-146 1.63625e-147 1.96052e-148 2.05972e-149 1.92355e-150 1.61461e-151 1.22934e-152 8.55527e-154 5.47737e-155 3.24421e-156 1.78626e-157 9.18161e-159 4.42234e-160 2.00256e-161 8.55084e-163 3.45207e-164 1.32083e-165 4.80017e-167 1.66027e-168 5.47526e-170 1.7245e-171 5.19545e-173 1.49936e-174 4.15036e-176 1.1033e-177 2.81987e-179 6.93672e-181 1.644e-182 3.75732e-184 8.28826e-186 1.7661e-187 3.63809e-189 7.25025e-191 1.3988e-192 2.61434e-194 4.73635e-196 8.3225e-198 1.41917e-199 2.3497e-201 3.77926e-203 5.90779e-205 8.97973e-207 1.32773e-208 1.91049e-210 2.67631e-212 3.65133e-214 4.85334e-216 6.28719e-218 7.94036e-220 9.77837e-222 0 
0 2.64884e-315 5.50153e-313 1.12099e-310 2.24082e-308 4.39431e-306 8.4535e-304 1.59525e-301 2.95294e-299 5.36156e-297 9.54818e-295 1.66771e-292 2.85673e-290 4.79887e-288 7.90504e-286 1.27684e-283 2.02212e-281 3.13964e-279 4.77886e-277 7.13021e-275 1.04274e-272 1.49455e-270 2.09921e-268 2.88916e-266 3.89594e-264 5.14669e-262 6.65992e-260 8.44075e-258 1.04763e-255 1.2732e-253 1.51488e-251 1.76439e-249 2.01131e-247 2.24368e-245 2.44888e-243 2.61473e-241 2.7306e-239 2.78855e-237 2.78423e-235 2.71737e-233 2.59188e-231 2.4155e-229 2.199e-227 1.95508e-225 1.69713e-223 1.438e-221 1.189e-219 9.5908e-218 7.54482e-216 5.78665e-214 4.32561e-212 3.15037e-210 2.23466e-208 1.54325e-206 1.0372e-204 6.78128e-203 4.31119e-201 2.66391e-199 1.59909e-197 9.32054e-196 5.27219e-194 2.89257e-192 1.53838e-190 7.92614e-189 3.95362e-187 1.90793e-185 8.90117e-184 4.01154e-182 1.745e-180 7.32013e-179 2.95853e-177 1.15089e-175 4.30455e-174 1.54618e-172 5.3272e-171 1.7582e-169 5.55069e-168 1.67366e-166 4.81167e-165 1.31656e-163 3.42167e-162 8.42815e-161 1.9628e-159 4.31035e-158 8.89913e-157 1.72163e-155 3.10931e-154 5.2201e-153 8.10736e-152 1.15835e-150 1.51263e-149 1.79155e-148 1.907e-147 1.80413e-146 1.49627e-145 1.06912e-144 6.43462e-144 3.16507e-143 1.22033e-142 3.47606e-142 6.74733e-142 8.38152e-142 8.33892e-142 8.6632e-142 7.93064e-142 7.32923e-142 7.53458e-142 1.03546e-141 1.31108e-141 1.34426e-141 1.20957e-141 1.0491e-141 1.10506e-141 1.30674e-141 1.37272e-141 1.27604e-141 1.10903e-141 1.18004e-141 1.20415e-141 1.04348e-141 8.09826e-142 7.77027e-142 9.52693e-142 1.1134e-141 1.2467e-141 1.16562e-141 1.00087e-141 9.14186e-142 7.44141e-142 6.13354e-142 6.73748e-142 8.149e-142 7.84228e-142 8.66618e-142 1.04776e-141 1.02432e-141 8.52498e-142 7.14202e-142 5.23963e-142 4.74444e-142 5.75484e-142 7.50419e-142 9.68626e-142 9.52717e-142 9.39106e-142 1.04881e-141 1.15551e-141 1.24868e-141 1.25335e-141 1.14757e-141 1.13963e-141 1.04761e-141 9.14237e-142 6.52835e-142 5.16129e-142 5.33816e-142 4.95918e-142 5.16188e-142 7.44106e-142 9.76699e-142 1.00393e-141 9.98846e-142 8.52438e-142 6.34326e-142 5.77832e-142 7.67718e-142 1.01476e-141 1.04001e-141 8.14519e-142 6.16067e-142 6.67831e-142 8.25013e-142 8.42774e-142 7.32001e-142 7.24503e-142 6.25734e-142 5.02068e-142 5.58553e-142 6.90674e-142 6.06937e-142 7.25557e-142 1.08656e-141 1.2245e-141 1.11535e-141 8.58397e-142 5.91817e-142 5.797e-142 8.60805e-142 1.15911e-141 1.16709e-141 1.03499e-141 1.00144e-141 1.19026e-141 1.40822e-141 1.4641e-141 1.44006e-141 1.41921e-141 1.30348e-141 1.10371e-141 1.04485e-141 8.17099e-142 4.15195e-142 1.44642e-142 3.73302e-143 7.56317e-144 1.25342e-144 1.7507e-145 2.10751e-146 2.22471e-147 2.08767e-148 1.76093e-149 1.34735e-150 9.42309e-152 6.06317e-153 3.60928e-154 1.99735e-155 1.03191e-156 4.99577e-158 2.27393e-159 9.76014e-161 3.96092e-162 1.52351e-163 5.5661e-165 1.93545e-166 6.41699e-168 2.03201e-169 6.15513e-171 1.78601e-172 4.97097e-174 1.32875e-175 3.41494e-177 8.4475e-179 2.01331e-180 4.62737e-182 1.02656e-183 2.19995e-185 4.55789e-187 9.13587e-189 1.77286e-190 3.33287e-192 6.0737e-194 1.07357e-195 1.8416e-197 3.06742e-199 4.96346e-201 7.80611e-203 1.19377e-204 1.77596e-206 2.57128e-208 3.62444e-210 4.97588e-212 6.65569e-214 8.6768e-216 1.10284e-217 1.36686e-219 0 