# vtk DataFile Version 3.0
Gray-Scott Simulation Output
ASCII
DATASET STRUCTURED_POINTS
DIMENSIONS 256 256 1
SPACING 1.0 1.0 1.0
ORIGIN 0 0 0
POINT_DATA 65536
SCALARS u double
LOOKUP_TABLE default
0 0 0 0 0 0 0 0 0 0 0 0 0 0 0 0 0 0 0 0 0 0 0 0 0 0 0 0 0 0 0 0 0 0 0 0 0 0 0 0 0 0 0 0 0 0 0 0 0 0 0 0 0 0 0 0 0 0 0 0 0 0 0 0 0 0 0 0 0 0 0 0 0 0 0 0 0 0 0 0 0 0 0 0 0 0 0 0 0 0 0 0 0 0 0 0 0 0 0 0 0 0 0 0 0 0 0 0 0 0 0 0 0 0 0 0 0 0 0 0 0 0 0 0 0 0 0 0 0 0 0 0 0 0 0 0 0 0 0 0 0 0 0 0 0 0 0 0 0 0 0 0 0 0 0 0 0 0 0 0 0 0 0 0 0 0 0 0 0 0 0 0 0 0 0 0 0 0 0 0 0 0 0 0 0 0 0 0 0 0 0 0 0 0 0 0 0 0 0 0 0 0 0 0 0 0 0 0 0 0 0 0 0 0 0 0 0 0 0 0 0 0 0 0 0 0 0 0 0 0 0 0 0 0 0 0 0 0 0 0 0 0 0 0 0 0 0 0 0 0 0 0 0 0 0 0 
0 5.38452e-110 3.64067e-109 2.38571e-108 1.54718e-107 9.93373e-107 6.31389e-106 3.97241e-105 2.47368e-104 1.52449e-103 9.29724e-103 5.61033e-102 3.34953e-101 1.97832e-100 1.1558e-99 6.67866e-99 3.81659e-98 2.15671e-97 1.205e-96 6.65598e-96 3.63426e-95 1.96131e-94 1.04605e-93 5.51284e-93 2.87054e-92 1.47658e-91 7.50245e-91 3.76478e-90 1.86555e-89 9.12733e-89 4.40847e-88 2.10172e-87 9.88872e-87 4.59109e-86 2.10298e-85 9.50226e-85 4.23469e-84 1.86099e-83 8.06349e-83 3.44414e-82 1.4499e-81 6.01476e-81 2.45832e-80 9.89728e-80 3.92433e-79 1.53214e-78 5.88885e-78 2.22775e-77 8.29303e-77 3.03723e-76 1.09411e-75 3.87583e-75 1.34985e-74 4.62082e-74 1.55439e-73 5.13688e-73 1.66734e-72 5.31401e-72 1.66256e-71 5.10467e-71 1.53771e-70 4.54333e-70 1.31625e-69 3.73802e-69 1.04028e-68 2.83617e-68 7.57269e-68 1.97956e-67 5.0646e-67 1.26777e-66 3.10392e-66 7.4304e-66 1.7386e-65 3.9749e-65 8.87658e-65 1.93559e-64 4.1199e-64 8.55696e-64 1.7337e-63 3.4254e-63 6.59786e-63 1.23857e-62 2.26543e-62 4.03626e-62 7.00349e-62 1.18323e-61 1.94618e-61 3.11606e-61 4.8564e-61 7.36741e-61 1.08803e-60 1.56446e-60 2.1908e-60 2.98889e-60 3.97468e-60 5.1552e-60 6.52634e-60 8.07173e-60 9.76319e-60 1.15627e-59 1.34257e-59 1.5305e-59 1.71549e-59 1.89341e-59 2.0608e-59 2.21496e-59 2.35392e-59 2.47633e-59 2.5814e-59 2.66875e-59 2.73836e-59 2.79059e-59 2.82612e-59 2.84602e-59 2.85168e-59 2.84483e-59 2.82742e-59 2.80147e-59 2.76892e-59 2.7315e-59 2.69056e-59 2.64709e-59 2.60175e-59 2.555e-59 2.50728e-59 2.45915e-59 2.41138e-59 2.36499e-59 2.32107e-59 2.28074e-59 2.24495e-59 2.21443e-59 2.18973e-59 2.17127e-59 2.15952e-59 2.15503e-59 2.1585e-59 2.17058e-59 2.19172e-59 2.22179e-59 2.25986e-59 2.30398e-59 2.35118e-59 2.3976e-59 2.43894e-59 2.47087e-59 2.48968e-59 2.49276e-59 2.47903e-59 2.44921e-59 2.4057e-59 2.35237e-59 2.29403e-59 2.23579e-59 2.18238e-59 2.13756e-59 2.10369e-59 2.08159e-59 2.0706e-59 2.06891e-59 2.07395e-59 2.0829e-59 2.09307e-59 2.10216e-59 2.10844e-59 2.11075e-59 2.1085e-59 2.1016e-59 2.0904e-59 2.07569e-59 2.05866e-59 2.0409e-59 2.02426e-59 2.01074e-59 2.00229e-59 2.00053e-59 2.00662e-59 2.02105e-59 2.04368e-59 2.07382e-59 2.11043e-59 2.15243e-59 2.19891e-59 2.24924e-59 2.30307e-59 2.36011e-59 2.41982e-59 2.48103e-59 2.5416e-59 2.59828e-59 2.64663e-59 2.68128e-59 2.69638e-59 2.68616e-59 2.64562e-59 2.57125e-59 2.46155e-59 2.31747e-59 2.14249e-59 1.94242e-59 1.72492e-59 1.49878e-59 1.27305e-59 1.05616e-59 8.55228e-60 6.7552e-60 5.20203e-60 3.9039e-60 2.85407e-60 2.03216e-60 1.40892e-60 9.51044e-61 6.2498e-61 3.99833e-61 2.4903e-61 1.51016e-61 8.91757e-62 5.12847e-62 2.87296e-62 1.56807e-62 8.34066e-63 4.32459e-63 2.18635e-63 1.07808e-63 5.18641e-64 2.43502e-64 1.11608e-64 4.99556e-65 2.18429e-65 9.33282e-66 3.89794e-66 1.59191e-66 6.35921e-67 2.48559e-67 9.50901e-68 3.56171e-68 1.30657e-68 4.69563e-69 1.65376e-69 5.7095e-70 1.93285e-70 6.41794e-71 2.09081e-71 6.68463e-72 2.09797e-72 6.4654e-73 1.95695e-73 5.81922e-74 1.70042e-74 4.88385e-75 1.37907e-75 3.8293e-76 1.04559e-76 2.79788e-77 6.9356e-78 0 
0 3.63716e-109 2.45884e-108 1.61101e-107 1.04461e-106 6.7059e-106 4.26162e-105 2.68082e-104 1.66914e-103 1.02851e-102 6.27156e-102 3.78397e-101 2.25883e-100 1.33394e-99 7.79222e-99 4.50207e-98 2.57242e-97 1.45346e-96 8.11975e-96 4.48451e-95 2.44831e-94 1.32114e-93 7.04535e-93 3.7126e-92 1.93294e-91 9.94188e-91 5.05091e-90 2.53433e-89 1.25571e-88 6.14307e-88 2.96682e-87 1.4143e-86 6.65382e-86 3.08897e-85 1.41482e-84 6.39236e-84 2.84857e-83 1.25177e-82 5.42345e-82 2.31638e-81 9.75092e-81 4.04488e-80 1.65313e-79 6.65531e-79 2.63878e-78 1.03021e-77 3.95955e-77 1.49786e-76 5.57588e-76 2.04208e-75 7.35622e-75 2.6059e-74 9.0757e-74 3.10684e-73 1.04512e-72 3.45392e-72 1.12111e-71 3.57321e-71 1.11796e-70 3.43269e-70 1.03409e-69 3.05548e-69 8.85254e-69 2.51417e-68 6.9973e-68 1.90783e-67 5.09435e-67 1.3318e-66 3.4076e-66 8.53059e-66 2.08875e-65 5.00063e-65 1.17017e-64 2.67557e-64 5.97555e-64 1.30313e-63 2.77397e-63 5.76203e-63 1.16754e-62 2.30702e-62 4.4441e-62 8.34339e-62 1.52619e-61 2.71942e-61 4.71897e-61 7.97329e-61 1.31154e-60 2.10006e-60 3.27315e-60 4.96578e-60 7.33385e-60 1.05456e-59 1.47678e-59 2.01478e-59 2.67927e-59 3.47499e-59 4.39911e-59 5.44056e-59 6.58027e-59 7.79257e-59 9.04739e-59 1.03129e-58 1.15582e-58 1.27556e-58 1.38818e-58 1.49186e-58 1.58528e-58 1.66756e-58 1.73815e-58 1.79682e-58 1.84356e-58 1.87862e-58 1.90246e-58 1.9158e-58 1.91959e-58 1.91498e-58 1.90328e-58 1.88585e-58 1.86399e-58 1.83887e-58 1.81138e-58 1.7822e-58 1.75176e-58 1.72038e-58 1.68834e-58 1.65602e-58 1.62396e-58 1.59281e-58 1.56333e-58 1.53626e-58 1.51223e-58 1.49175e-58 1.47517e-58 1.46279e-58 1.45492e-58 1.45192e-58 1.45426e-58 1.46239e-58 1.47659e-58 1.4968e-58 1.52237e-58 1.552e-58 1.5837e-58 1.61487e-58 1.64262e-58 1.66406e-58 1.67668e-58 1.67873e-58 1.66949e-58 1.64944e-58 1.6202e-58 1.58437e-58 1.54518e-58 1.50607e-58 1.4702e-58 1.44011e-58 1.41739e-58 1.40257e-58 1.39522e-58 1.39411e-58 1.39753e-58 1.40357e-58 1.41043e-58 1.41655e-58 1.42078e-58 1.42234e-58 1.42083e-58 1.41618e-58 1.40865e-58 1.39875e-58 1.38729e-58 1.37533e-58 1.36411e-58 1.355e-58 1.34927e-58 1.34806e-58 1.35211e-58 1.36178e-58 1.37695e-58 1.39717e-58 1.42175e-58 1.44995e-58 1.48116e-58 1.51496e-58 1.55111e-58 1.58942e-58 1.62952e-58 1.67062e-58 1.71129e-58 1.74935e-58 1.7818e-58 1.80505e-58 1.81516e-58 1.80824e-58 1.78094e-58 1.73089e-58 1.65707e-58 1.56012e-58 1.44237e-58 1.30773e-58 1.16136e-58 1.00915e-58 8.57196e-59 7.11186e-59 5.75909e-59 4.5491e-59 3.50326e-59 2.6291e-59 1.92212e-59 1.36859e-59 9.48866e-60 6.40493e-60 4.20894e-60 2.69262e-60 1.67701e-60 1.01693e-60 6.00475e-61 3.45315e-61 1.93435e-61 1.05572e-61 5.61509e-62 2.91122e-62 1.47171e-62 7.25646e-63 3.4907e-63 1.63878e-63 7.51077e-64 3.36159e-64 1.46975e-64 6.27941e-65 2.6225e-65 1.07096e-65 4.27793e-66 1.672e-66 6.39619e-67 2.39565e-67 8.7878e-68 3.15809e-68 1.11221e-68 3.83971e-69 1.29983e-69 4.31592e-70 1.406e-70 4.49511e-71 1.41077e-71 4.34761e-72 1.31594e-72 3.91309e-73 1.14344e-73 3.28416e-74 9.27371e-75 2.57511e-75 7.03148e-76 1.8816e-76 4.66439e-77 0 
0 2.38098e-108 1.60936e-107 1.05427e-106 6.83495e-106 4.38702e-105 2.78753e-104 1.75325e-103 1.09145e-102 6.72441e-102 4.09973e-101 2.47323e-100 1.47617e-99 8.71624e-99 5.09089e-98 2.94094e-97 1.68019e-96 9.49206e-96 5.30208e-95 2.92795e-94 1.59832e-93 8.62366e-93 4.59829e-92 2.42283e-91 1.26129e-90 6.48663e-90 3.29515e-89 1.6532e-88 8.19048e-88 4.00651e-87 1.93479e-86 9.22245e-86 4.33851e-85 2.01395e-84 9.22367e-84 4.16711e-83 1.85683e-82 8.15909e-82 3.53484e-81 1.50967e-80 6.35472e-80 2.63595e-79 1.07726e-78 4.33679e-78 1.71945e-77 6.71277e-77 2.57996e-76 9.75963e-76 3.63304e-75 1.33054e-74 4.79302e-74 1.69791e-73 5.91346e-73 2.02435e-72 6.80993e-72 2.25061e-71 7.3055e-71 2.3285e-70 7.28555e-70 2.23713e-69 6.73967e-69 1.99151e-68 5.7703e-68 1.63891e-67 4.56164e-67 1.24384e-66 3.32159e-66 8.68426e-66 2.22219e-65 5.56356e-65 1.36239e-64 3.26199e-64 7.634e-64 1.74568e-63 3.89915e-63 8.50406e-63 1.81045e-62 3.76105e-62 7.62169e-62 1.50618e-61 2.90172e-61 5.44828e-61 9.96714e-61 1.77615e-60 3.08241e-60 5.20856e-60 8.56834e-60 1.37208e-59 2.13866e-59 3.24479e-59 4.79238e-59 6.89135e-59 9.65071e-59 1.31667e-58 1.75091e-58 2.27087e-58 2.87469e-58 3.55508e-58 4.29955e-58 5.09129e-58 5.91061e-58 6.73669e-58 7.54936e-58 8.33048e-58 9.0649e-58 9.7408e-58 1.03496e-57 1.08856e-57 1.13453e-57 1.17272e-57 1.20314e-57 1.22595e-57 1.24145e-57 1.25012e-57 1.25257e-57 1.24956e-57 1.24194e-57 1.23059e-57 1.21637e-57 1.20002e-57 1.18214e-57 1.16315e-57 1.14334e-57 1.12292e-57 1.10208e-57 1.08105e-57 1.06019e-57 1.03992e-57 1.02074e-57 1.00312e-57 9.87492e-58 9.7417e-58 9.63392e-58 9.55345e-58 9.50228e-58 9.48287e-58 9.49819e-58 9.55118e-58 9.6437e-58 9.77527e-58 9.94177e-58 1.01347e-57 1.0341e-57 1.05439e-57 1.07245e-57 1.08639e-57 1.0946e-57 1.09592e-57 1.08989e-57 1.07683e-57 1.05779e-57 1.03445e-57 1.00894e-57 9.83475e-58 9.60133e-58 9.40555e-58 9.25777e-58 9.1615e-58 9.11386e-58 9.10687e-58 9.12933e-58 9.16887e-58 9.21365e-58 9.25366e-58 9.28127e-58 9.29145e-58 9.28162e-58 9.25134e-58 9.20219e-58 9.1376e-58 9.06281e-58 8.98472e-58 8.91147e-58 8.85184e-58 8.81432e-58 8.80613e-58 8.83228e-58 8.89501e-58 8.99365e-58 9.12516e-58 9.28507e-58 9.4686e-58 9.67172e-58 9.89172e-58 1.0127e-57 1.03763e-57 1.06373e-57 1.09048e-57 1.11696e-57 1.14172e-57 1.16284e-57 1.17796e-57 1.18451e-57 1.17998e-57 1.16215e-57 1.1295e-57 1.08135e-57 1.01811e-57 9.41309e-58 8.53481e-58 7.57986e-58 6.58676e-58 5.59523e-58 4.64239e-58 3.7595e-58 2.96973e-58 2.28706e-58 1.71641e-58 1.25488e-58 8.93507e-59 6.19479e-59 4.18148e-59 2.74777e-59 1.7578e-59 1.09475e-59 6.63823e-60 3.91954e-60 2.25388e-60 1.26248e-60 6.88985e-61 3.66429e-61 1.89967e-61 9.6027e-62 4.73438e-62 2.27729e-62 1.06904e-62 4.8992e-63 2.19257e-63 9.58559e-64 4.09509e-64 1.71013e-64 6.98325e-65 2.78926e-65 1.0901e-65 4.16988e-66 1.56172e-66 5.72844e-67 2.05854e-67 7.24941e-68 2.50263e-68 8.47166e-69 2.81282e-69 9.16309e-70 2.92946e-70 9.19382e-71 2.83324e-71 8.5756e-72 2.55004e-72 7.45148e-73 2.1402e-73 6.0435e-74 1.67818e-74 4.58244e-75 1.22628e-75 3.03994e-76 0 
0 1.5425e-107 1.04245e-106 6.82781e-106 4.42585e-105 2.84029e-104 1.80445e-103 1.13476e-102 7.0631e-102 4.35093e-101 2.65229e-100 1.5998e-99 9.54725e-99 5.6365e-98 3.29166e-97 1.90129e-96 1.08608e-95 6.13495e-95 3.42643e-94 1.89194e-93 1.03265e-92 5.57098e-92 2.97021e-91 1.56483e-90 8.14541e-90 4.18863e-89 2.12757e-88 1.06732e-87 5.28733e-87 2.58616e-86 1.24878e-85 5.95199e-85 2.79977e-84 1.29957e-83 5.95147e-83 2.68861e-82 1.19795e-81 5.2636e-81 2.28028e-80 9.73819e-80 4.09897e-79 1.7002e-78 6.94815e-78 2.79707e-77 1.10896e-76 4.3293e-76 1.66388e-75 6.29418e-75 2.34301e-74 8.58089e-74 3.09112e-73 1.09503e-72 3.81383e-72 1.30562e-71 4.39222e-71 1.45163e-70 4.71219e-70 1.50199e-69 4.69976e-69 1.4432e-68 4.34812e-68 1.28492e-67 3.72323e-67 1.05757e-66 2.94381e-66 8.02766e-66 2.14393e-65 5.6058e-65 1.43459e-64 3.59206e-64 8.79705e-64 2.10652e-63 4.93041e-63 1.12757e-62 2.51884e-62 5.49423e-62 1.16982e-61 2.43047e-61 4.92588e-61 9.73555e-61 1.87581e-60 3.52241e-60 6.44463e-60 1.14856e-59 1.99345e-59 3.36879e-59 5.5423e-59 8.87578e-59 1.38356e-58 2.09928e-58 3.10068e-58 4.45888e-58 6.24442e-58 8.51948e-58 1.13292e-57 1.46934e-57 1.85997e-57 2.30008e-57 2.78157e-57 3.29353e-57 3.82319e-57 4.35708e-57 4.88215e-57 5.38665e-57 5.86082e-57 6.29705e-57 6.68982e-57 7.03547e-57 7.33183e-57 7.57797e-57 7.77396e-57 7.92085e-57 8.02067e-57 8.07644e-57 8.09216e-57 8.07271e-57 8.02356e-57 7.95042e-57 7.85877e-57 7.75342e-57 7.63822e-57 7.51591e-57 7.38834e-57 7.2568e-57 7.12252e-57 6.98707e-57 6.85266e-57 6.7221e-57 6.59854e-57 6.48508e-57 6.38442e-57 6.29864e-57 6.22925e-57 6.17747e-57 6.14456e-57 6.13212e-57 6.14205e-57 6.17625e-57 6.23592e-57 6.32073e-57 6.42805e-57 6.55238e-57 6.68531e-57 6.81605e-57 6.9324e-57 7.02223e-57 7.07503e-57 7.08348e-57 7.04459e-57 6.96032e-57 6.83752e-57 6.68709e-57 6.52262e-57 6.35851e-57 6.20811e-57 6.082e-57 5.98686e-57 5.92494e-57 5.89438e-57 5.89002e-57 5.90464e-57 5.93025e-57 5.95923e-57 5.98509e-57 6.00294e-57 6.00953e-57 6.00319e-57 5.98365e-57 5.9519e-57 5.91018e-57 5.86186e-57 5.81138e-57 5.76401e-57 5.7254e-57 5.70104e-57 5.69559e-57 5.7123e-57 5.75259e-57 5.81607e-57 5.90075e-57 6.00375e-57 6.122e-57 6.25289e-57 6.39465e-57 6.54627e-57 6.70693e-57 6.87509e-57 7.04745e-57 7.21803e-57 7.37757e-57 7.51359e-57 7.61095e-57 7.65306e-57 7.62361e-57 7.50843e-57 7.29751e-57 6.98658e-57 6.57823e-57 6.08223e-57 5.51499e-57 4.89817e-57 4.25664e-57 3.61606e-57 3.0004e-57 2.42989e-57 1.91951e-57 1.4783e-57 1.10947e-57 8.1115e-58 5.77563e-58 4.00429e-58 2.70285e-58 1.77608e-58 1.13615e-58 7.07562e-59 4.29024e-59 2.53303e-59 1.4565e-59 8.15784e-60 4.45173e-60 2.36743e-60 1.22724e-60 6.20314e-61 3.05806e-61 1.47084e-61 6.90404e-62 3.16373e-62 1.41576e-62 6.189e-63 2.64381e-63 1.10398e-63 4.50772e-64 1.80035e-64 7.03562e-65 2.69111e-65 1.00782e-65 3.69649e-66 1.32828e-66 4.67745e-67 1.61467e-67 5.46557e-68 1.81465e-68 5.91122e-69 1.88977e-69 5.93072e-70 1.82762e-70 5.53172e-71 1.6449e-71 4.80653e-72 1.38052e-72 3.89833e-73 1.08251e-73 2.95595e-74 7.91035e-75 1.96102e-75 0 
0 9.89314e-107 6.68493e-106 4.37778e-105 2.83727e-104 1.82053e-103 1.15642e-102 7.2712e-102 4.52516e-101 2.78713e-100 1.69876e-99 1.02451e-98 6.1132e-98 3.60862e-97 2.10711e-96 1.21693e-95 6.95062e-95 3.9257e-94 2.19227e-93 1.21034e-92 6.60548e-92 3.56314e-91 1.89951e-90 1.00063e-89 5.20805e-89 2.67788e-88 1.36007e-87 6.82229e-87 3.37937e-86 1.65278e-85 7.98015e-85 3.80325e-84 1.78889e-83 8.30291e-83 3.80213e-82 1.71753e-81 7.65226e-81 3.36211e-80 1.45645e-79 6.21968e-79 2.61787e-78 1.08582e-77 4.43727e-77 1.78624e-76 7.08179e-76 2.76465e-75 1.06253e-74 4.01936e-74 1.49621e-73 5.47967e-73 1.97399e-72 6.99299e-72 2.43561e-71 8.33826e-71 2.80517e-70 9.27148e-70 3.00978e-69 9.59406e-69 3.00217e-68 9.21964e-68 2.77791e-67 8.20962e-67 2.37904e-66 6.75814e-66 1.88134e-65 5.13082e-65 1.37041e-64 3.58362e-64 9.17192e-64 2.2968e-63 5.62556e-63 1.34724e-62 3.15366e-62 7.2132e-62 1.61153e-61 3.51559e-61 7.48626e-61 1.55558e-60 3.15312e-60 6.23262e-60 1.20102e-59 2.25556e-59 4.12728e-59 7.35642e-59 1.27693e-58 2.15813e-58 3.55086e-58 5.68704e-58 8.86567e-58 1.34528e-57 1.9871e-57 2.85764e-57 4.00207e-57 5.46024e-57 7.26104e-57 9.41701e-57 1.19202e-56 1.474e-56 1.78245e-56 2.11034e-56 2.44949e-56 2.79126e-56 3.12726e-56 3.45e-56 3.75322e-56 4.03206e-56 4.28303e-56 4.50381e-56 4.69304e-56 4.85014e-56 4.97519e-56 5.06889e-56 5.13253e-56 5.16806e-56 5.17804e-56 5.16558e-56 5.13419e-56 5.0875e-56 5.02901e-56 4.96179e-56 4.88829e-56 4.81026e-56 4.72887e-56 4.64495e-56 4.55928e-56 4.47286e-56 4.38711e-56 4.30381e-56 4.22498e-56 4.1526e-56 4.0884e-56 4.03369e-56 3.98945e-56 3.95645e-56 3.93549e-56 3.92759e-56 3.93396e-56 3.95582e-56 3.99393e-56 4.04809e-56 4.1166e-56 4.19596e-56 4.2808e-56 4.36424e-56 4.43848e-56 4.49579e-56 4.52945e-56 4.5348e-56 4.50993e-56 4.45609e-56 4.37766e-56 4.28161e-56 4.1766e-56 4.07185e-56 3.97587e-56 3.89542e-56 3.83476e-56 3.79532e-56 3.7759e-56 3.77322e-56 3.78265e-56 3.79908e-56 3.81765e-56 3.83421e-56 3.84564e-56 3.84986e-56 3.84581e-56 3.83331e-56 3.81301e-56 3.78631e-56 3.75539e-56 3.72307e-56 3.69273e-56 3.66797e-56 3.6523e-56 3.64872e-56 3.65929e-56 3.68493e-56 3.72538e-56 3.77939e-56 3.8451e-56 3.92056e-56 4.00409e-56 4.09456e-56 4.19133e-56 4.29386e-56 4.40118e-56 4.51117e-56 4.62002e-56 4.72183e-56 4.80862e-56 4.8707e-56 4.89749e-56 4.87856e-56 4.80484e-56 4.66992e-56 4.47105e-56 4.20987e-56 3.89261e-56 3.52975e-56 3.13513e-56 2.72466e-56 2.31475e-56 1.92074e-56 1.55559e-56 1.2289e-56 9.46455e-57 7.10334e-57 5.1934e-57 3.69786e-57 2.56373e-57 1.73046e-57 1.13708e-57 7.27359e-58 4.52957e-58 2.74631e-58 1.62137e-58 9.32232e-59 5.22104e-59 2.8489e-59 1.51492e-59 7.85247e-60 3.96871e-60 1.95634e-60 9.40857e-61 4.41593e-61 2.02338e-61 9.05377e-62 3.95749e-62 1.69041e-62 7.05804e-63 2.88166e-63 1.15082e-63 4.49695e-64 1.71994e-64 6.4407e-65 2.36217e-65 8.48754e-66 2.98866e-66 1.03163e-66 3.49185e-67 1.15929e-67 3.77624e-68 1.20719e-68 3.78844e-69 1.16742e-69 3.53339e-70 1.05066e-70 3.07008e-71 8.81776e-72 2.48996e-72 6.91427e-73 1.88805e-73 5.05264e-74 1.25259e-74 0 
0 6.28127e-106 4.24369e-105 2.77864e-104 1.80057e-103 1.15516e-102 7.33655e-102 4.61232e-101 2.87001e-100 1.76744e-99 1.07711e-98 6.49506e-98 3.87502e-97 2.28712e-96 1.3353e-95 7.71081e-95 4.40356e-94 2.48682e-93 1.38858e-92 7.66536e-92 4.18293e-91 2.25612e-90 1.2026e-89 6.33447e-89 3.29662e-88 1.69489e-87 8.60743e-87 4.31721e-86 2.13831e-85 1.04572e-84 5.04869e-84 2.40597e-83 1.13159e-82 5.2518e-82 2.4048e-81 1.08625e-80 4.83943e-80 2.12616e-79 9.21007e-79 3.93295e-78 1.65533e-77 6.86565e-77 2.80563e-76 1.12939e-75 4.47758e-75 1.74798e-74 6.71797e-74 2.54129e-73 9.46008e-73 3.46468e-72 1.24813e-71 4.42171e-71 1.5401e-70 5.27269e-70 1.77392e-69 5.86335e-69 1.90351e-68 6.06804e-68 1.89893e-67 5.83203e-67 1.75734e-66 5.19394e-66 1.50527e-65 4.27641e-65 1.19059e-64 3.24733e-64 8.67435e-64 2.26859e-63 5.80691e-63 1.45432e-62 3.56251e-62 8.53278e-62 1.99763e-61 4.56969e-61 1.02107e-60 2.22779e-60 4.74459e-60 9.86018e-60 1.9989e-59 3.95166e-59 7.61583e-59 1.43046e-58 2.61782e-58 4.66653e-58 8.10107e-58 1.36931e-57 2.2532e-57 3.60904e-57 5.62667e-57 8.53849e-57 1.26129e-56 1.81393e-56 2.54045e-56 3.46613e-56 4.60926e-56 5.97775e-56 7.56645e-56 9.35591e-56 1.13129e-55 1.33929e-55 1.55437e-55 1.77105e-55 1.98401e-55 2.18848e-55 2.38051e-55 2.55704e-55 2.71585e-55 2.85551e-55 2.97516e-55 3.07446e-55 3.15348e-55 3.21267e-55 3.25285e-55 3.27526e-55 3.28154e-55 3.27364e-55 3.25377e-55 3.22425e-55 3.18729e-55 3.14481e-55 3.09837e-55 3.04906e-55 2.99765e-55 2.94462e-55 2.89049e-55 2.83589e-55 2.78171e-55 2.72908e-55 2.67927e-55 2.63355e-55 2.59299e-55 2.55844e-55 2.5305e-55 2.50967e-55 2.49645e-55 2.49148e-55 2.49554e-55 2.50937e-55 2.53348e-55 2.56772e-55 2.61104e-55 2.6612e-55 2.71483e-55 2.76757e-55 2.81449e-55 2.85069e-55 2.87195e-55 2.8753e-55 2.85955e-55 2.82549e-55 2.77588e-55 2.71514e-55 2.64875e-55 2.58253e-55 2.52187e-55 2.47105e-55 2.43274e-55 2.40786e-55 2.39565e-55 2.39402e-55 2.40004e-55 2.41048e-55 2.42226e-55 2.43277e-55 2.44002e-55 2.4427e-55 2.44013e-55 2.43221e-55 2.41935e-55 2.40243e-55 2.38283e-55 2.36234e-55 2.34309e-55 2.32737e-55 2.31739e-55 2.31506e-55 2.32168e-55 2.33784e-55 2.36337e-55 2.39748e-55 2.439e-55 2.48669e-55 2.53948e-55 2.59667e-55 2.65783e-55 2.72263e-55 2.79046e-55 2.85998e-55 2.92877e-55 2.99311e-55 3.04794e-55 3.08716e-55 3.10404e-55 3.09199e-55 3.04526e-55 2.95979e-55 2.83382e-55 2.66838e-55 2.4674e-55 2.23751e-55 1.98747e-55 1.72736e-55 1.46756e-55 1.21782e-55 9.86347e-56 7.79229e-56 6.00154e-56 4.50437e-56 3.29327e-56 2.34491e-56 1.62571e-56 1.09729e-56 7.21002e-57 4.61187e-57 2.87186e-57 1.74113e-57 1.02786e-57 5.90941e-58 3.30935e-58 1.80562e-58 9.6006e-59 4.97594e-59 2.51464e-59 1.23945e-59 5.96025e-60 2.79717e-60 1.28154e-60 5.73375e-61 2.50603e-61 1.07032e-61 4.46855e-62 1.82425e-62 7.28465e-63 2.84631e-63 1.08853e-63 4.07591e-64 1.49475e-64 5.37042e-65 1.89092e-65 6.52672e-66 2.20902e-66 7.33353e-67 2.38868e-67 7.6358e-68 2.39619e-68 7.38369e-69 2.23473e-69 6.64485e-70 1.94162e-70 5.57656e-71 1.5747e-71 4.37269e-72 1.19404e-72 3.19539e-73 7.92171e-74 0 
0 3.94752e-105 2.66658e-104 1.74573e-103 1.13107e-102 7.25528e-102 4.60722e-101 2.89603e-100 1.80179e-99 1.10944e-98 6.76016e-98 4.07589e-97 2.43139e-96 1.43487e-95 8.3762e-95 4.8363e-94 2.76163e-93 1.55938e-92 8.7062e-92 4.80553e-91 2.62205e-90 1.41409e-89 7.53691e-89 3.96952e-88 2.06564e-87 1.06191e-86 5.39238e-86 2.70441e-85 1.33939e-84 6.54965e-84 3.1619e-83 1.50671e-82 7.086e-82 3.28847e-81 1.5057e-80 6.80095e-80 3.02979e-79 1.33106e-78 5.76564e-78 2.462e-77 1.0362e-76 4.29764e-76 1.75619e-75 7.06938e-75 2.8027e-74 1.09413e-73 4.20507e-73 1.59072e-72 5.92163e-72 2.16879e-71 7.81319e-71 2.76804e-70 9.64156e-70 3.30103e-69 1.11064e-68 3.67121e-68 1.19192e-67 3.79987e-67 1.18922e-66 3.65264e-66 1.10073e-65 3.25357e-65 9.43018e-65 2.67935e-64 7.46032e-64 2.03503e-63 5.43667e-63 1.42202e-62 3.64039e-62 9.1184e-62 2.23395e-61 5.3514e-61 1.25301e-60 2.86672e-60 6.40643e-60 1.39797e-59 2.97774e-59 6.18921e-59 1.25489e-58 2.48116e-58 4.78248e-58 8.98406e-58 1.64434e-57 2.93158e-57 5.08983e-57 8.60421e-57 1.41598e-56 2.26824e-56 3.53661e-56 5.36721e-56 7.92881e-56 1.14034e-55 1.59713e-55 2.17911e-55 2.89778e-55 3.75807e-55 4.75668e-55 5.88132e-55 7.11104e-55 8.41774e-55 9.76859e-55 1.1129e-54 1.24657e-54 1.37486e-54 1.49529e-54 1.60596e-54 1.70548e-54 1.79296e-54 1.86788e-54 1.93004e-54 1.97948e-54 2.0165e-54 2.04162e-54 2.05562e-54 2.05952e-54 2.05456e-54 2.04212e-54 2.02363e-54 2.0005e-54 1.97391e-54 1.94485e-54 1.91401e-54 1.88184e-54 1.84866e-54 1.81479e-54 1.78063e-54 1.74673e-54 1.7138e-54 1.68264e-54 1.65403e-54 1.62866e-54 1.60705e-54 1.58958e-54 1.57656e-54 1.56831e-54 1.56521e-54 1.56776e-54 1.57644e-54 1.59154e-54 1.61298e-54 1.6401e-54 1.6715e-54 1.70507e-54 1.73808e-54 1.76744e-54 1.7901e-54 1.80339e-54 1.80547e-54 1.79559e-54 1.77425e-54 1.74318e-54 1.70514e-54 1.66357e-54 1.62212e-54 1.58416e-54 1.55236e-54 1.5284e-54 1.51286e-54 1.50526e-54 1.50428e-54 1.50809e-54 1.51466e-54 1.52207e-54 1.52867e-54 1.53322e-54 1.5349e-54 1.53329e-54 1.52832e-54 1.52025e-54 1.50964e-54 1.49733e-54 1.48447e-54 1.47237e-54 1.46248e-54 1.45619e-54 1.45469e-54 1.45879e-54 1.46888e-54 1.48484e-54 1.50618e-54 1.53216e-54 1.562e-54 1.59504e-54 1.63084e-54 1.66912e-54 1.70967e-54 1.75212e-54 1.79563e-54 1.83869e-54 1.87895e-54 1.91327e-54 1.93779e-54 1.94833e-54 1.94074e-54 1.91141e-54 1.85779e-54 1.77877e-54 1.67499e-54 1.54891e-54 1.40467e-54 1.24777e-54 1.08453e-54 9.21469e-55 7.64699e-55 6.19379e-55 4.89337e-55 3.76893e-55 2.82877e-55 2.06821e-55 1.47262e-55 1.02095e-55 6.89084e-56 4.52761e-56 2.89595e-56 1.80323e-56 1.09318e-56 6.45302e-57 3.70969e-57 2.0773e-57 1.13329e-57 6.0252e-58 3.12251e-58 1.57783e-58 7.77617e-59 3.73899e-59 1.75453e-59 8.03757e-60 3.59572e-60 1.5714e-60 6.71069e-61 2.80139e-61 1.14353e-61 4.56591e-62 1.78385e-62 6.82145e-63 2.554e-63 9.36545e-64 3.36459e-64 1.18458e-64 4.0884e-65 1.38366e-65 4.59319e-66 1.49601e-66 4.78199e-67 1.50056e-67 4.62369e-68 1.39934e-68 4.16074e-69 1.21573e-69 3.49165e-70 9.85948e-71 2.7378e-71 7.47597e-72 2.00066e-72 4.95987e-73 0 
0 2.45542e-104 1.6584e-103 1.08554e-102 7.0322e-102 4.51016e-101 2.86361e-100 1.79976e-99 1.11958e-98 6.89276e-98 4.1994e-97 2.5316e-96 1.50998e-95 8.90988e-95 5.20058e-94 3.00238e-93 1.71421e-92 9.67838e-92 5.40292e-91 2.98191e-90 1.62685e-89 8.7728e-89 4.67532e-88 2.46215e-87 1.28112e-86 6.58546e-86 3.34381e-85 1.67687e-84 8.30421e-84 4.0605e-83 1.9601e-82 9.33971e-82 4.39216e-81 2.0382e-80 9.3319e-80 4.21483e-79 1.87761e-78 8.24847e-78 3.57281e-77 1.5256e-76 6.42073e-76 2.66297e-75 1.08818e-74 4.38036e-74 1.73662e-73 6.77954e-73 2.6056e-72 9.85681e-72 3.66938e-71 1.34395e-70 4.84181e-70 1.71541e-69 5.97536e-69 2.04592e-68 6.88397e-68 2.27564e-67 7.38873e-67 2.35573e-66 7.37318e-66 2.26484e-65 6.82579e-65 2.01779e-64 5.849e-64 1.66203e-63 4.62827e-63 1.26266e-62 3.37367e-62 8.82535e-62 2.25961e-61 5.66064e-61 1.38702e-60 3.32308e-60 7.78201e-60 1.7807e-59 3.98004e-59 8.68634e-59 1.85051e-58 3.84688e-58 7.80091e-58 1.54263e-57 2.97389e-57 5.58738e-57 1.0228e-56 1.82372e-56 3.16676e-56 5.35397e-56 8.8119e-56 1.41172e-55 2.20133e-55 3.34103e-55 4.93592e-55 7.09932e-55 9.94343e-55 1.3567e-54 1.80414e-54 2.33971e-54 2.96132e-54 3.66128e-54 4.42649e-54 5.2394e-54 6.07957e-54 6.92543e-54 7.75617e-54 8.55322e-54 9.30117e-54 9.98814e-54 1.06057e-53 1.11483e-53 1.16128e-53 1.1998e-53 1.23043e-53 1.25336e-53 1.26891e-53 1.27757e-53 1.27997e-53 1.27688e-53 1.26916e-53 1.2577e-53 1.24336e-53 1.22689e-53 1.20889e-53 1.18978e-53 1.16985e-53 1.1493e-53 1.12831e-53 1.10715e-53 1.08614e-53 1.06574e-53 1.04644e-53 1.02872e-53 1.013e-53 9.99619e-54 9.88804e-54 9.80745e-54 9.75638e-54 9.73731e-54 9.75321e-54 9.80704e-54 9.90068e-54 1.00336e-53 1.02018e-53 1.03964e-53 1.06045e-53 1.08091e-53 1.09911e-53 1.11314e-53 1.12137e-53 1.12265e-53 1.11651e-53 1.10327e-53 1.084e-53 1.06042e-53 1.03464e-53 1.00895e-53 9.85424e-54 9.65725e-54 9.50895e-54 9.41286e-54 9.36597e-54 9.36015e-54 9.38402e-54 9.42499e-54 9.47108e-54 9.51212e-54 9.54041e-54 9.55088e-54 9.54089e-54 9.51003e-54 9.45987e-54 9.3939e-54 9.31743e-54 9.23742e-54 9.16217e-54 9.10058e-54 9.06132e-54 9.05173e-54 9.07695e-54 9.13927e-54 9.23806e-54 9.37022e-54 9.5312e-54 9.71615e-54 9.92093e-54 1.01427e-53 1.038e-53 1.06313e-53 1.08944e-53 1.11641e-53 1.14309e-53 1.16804e-53 1.1893e-53 1.20449e-53 1.21101e-53 1.20627e-53 1.18804e-53 1.15474e-53 1.10566e-53 1.04119e-53 9.62867e-54 8.73253e-54 7.7576e-54 6.7431e-54 5.7296e-54 4.75507e-54 3.85162e-54 3.04307e-54 2.34388e-54 1.75923e-54 1.28624e-54 9.15833e-55 6.34921e-55 4.28525e-55 2.8155e-55 1.80076e-55 1.12122e-55 6.7967e-56 4.01176e-56 2.30607e-56 1.29119e-56 7.04353e-57 3.74433e-57 1.94026e-57 9.80314e-58 4.83082e-58 2.32251e-58 1.08972e-58 4.99143e-59 2.23272e-59 9.75623e-60 4.16594e-60 1.73888e-60 7.09729e-61 2.83352e-61 1.1069e-61 4.23238e-62 1.58448e-62 5.80968e-63 2.08697e-63 7.347e-64 2.5355e-64 8.58038e-65 2.84814e-65 9.27582e-66 2.96483e-66 9.30298e-67 2.86638e-67 8.6746e-68 2.57916e-68 7.53584e-69 2.16428e-69 6.11119e-70 1.69694e-70 4.63368e-71 1.24002e-71 3.07415e-72 0 
0 1.51149e-103 1.02072e-102 6.68031e-102 4.32692e-101 2.7747e-100 1.76146e-99 1.10691e-98 6.88483e-98 4.23811e-97 2.58171e-96 1.55617e-95 9.28066e-95 5.47552e-94 3.1956e-93 1.84465e-92 1.05308e-91 5.94499e-91 3.31841e-90 1.83126e-89 9.98983e-89 5.38648e-88 2.87036e-87 1.51147e-86 7.86389e-86 4.04199e-85 2.05218e-84 1.02906e-83 5.09575e-83 2.49149e-82 1.20263e-81 5.73007e-81 2.69451e-80 1.25034e-79 5.72441e-79 2.58537e-78 1.15168e-77 5.05926e-77 2.19135e-76 9.35691e-76 3.93795e-75 1.63323e-74 6.67391e-74 2.68651e-73 1.06509e-72 4.15803e-72 1.5981e-71 6.04564e-71 2.25067e-70 8.24359e-70 2.97002e-69 1.05231e-68 3.66573e-68 1.2552e-67 4.22368e-67 1.39633e-66 4.53407e-66 1.44571e-65 4.52533e-65 1.39019e-64 4.19021e-64 1.23882e-63 3.59139e-63 1.02064e-62 2.84255e-62 7.75589e-62 2.07257e-61 5.4225e-61 1.38856e-60 3.47907e-60 8.52604e-60 2.04302e-59 4.78514e-59 1.09513e-58 2.44812e-58 5.34385e-58 1.13863e-57 2.3674e-57 4.80152e-57 9.49656e-57 1.83105e-56 3.44072e-56 6.29936e-56 1.12338e-55 1.95095e-55 3.29884e-55 5.4301e-55 8.70028e-55 1.35679e-54 2.05942e-54 3.04272e-54 4.37657e-54 6.13013e-54 8.36424e-54 1.11228e-53 1.44244e-53 1.82559e-53 2.25697e-53 2.72847e-53 3.22925e-53 3.74666e-53 4.26741e-53 4.77867e-53 5.26899e-53 5.7289e-53 6.15114e-53 6.53054e-53 6.86375e-53 7.14889e-53 7.38528e-53 7.57317e-53 7.71374e-53 7.80904e-53 7.86206e-53 7.8767e-53 7.85767e-53 7.81024e-53 7.7399e-53 7.65189e-53 7.55083e-53 7.44038e-53 7.32316e-53 7.2009e-53 7.07485e-53 6.94614e-53 6.81631e-53 6.68746e-53 6.56231e-53 6.4439e-53 6.33522e-53 6.23885e-53 6.15679e-53 6.09049e-53 6.04111e-53 6.00984e-53 5.99819e-53 6.008e-53 6.04108e-53 6.09859e-53 6.18021e-53 6.2834e-53 6.40289e-53 6.5306e-53 6.65613e-53 6.76779e-53 6.85389e-53 6.90435e-53 6.91215e-53 6.87441e-53 6.79307e-53 6.67473e-53 6.52992e-53 6.37172e-53 6.21402e-53 6.06967e-53 5.94884e-53 5.85794e-53 5.79911e-53 5.77049e-53 5.76709e-53 5.7819e-53 5.80718e-53 5.83559e-53 5.86086e-53 5.87828e-53 5.88472e-53 5.87858e-53 5.85959e-53 5.82873e-53 5.78813e-53 5.74106e-53 5.69181e-53 5.64545e-53 5.60747e-53 5.5832e-53 5.57715e-53 5.59249e-53 5.63062e-53 5.69117e-53 5.77222e-53 5.87098e-53 5.98446e-53 6.11013e-53 6.24624e-53 6.39182e-53 6.54605e-53 6.70748e-53 6.87292e-53 7.03664e-53 7.18975e-53 7.3202e-53 7.41338e-53 7.45326e-53 7.42401e-53 7.31187e-53 7.10701e-53 6.80517e-53 6.40869e-53 5.92691e-53 5.37562e-53 4.77577e-53 4.15148e-53 3.52772e-53 2.92786e-53 2.37169e-53 1.87389e-53 1.44337e-53 1.08336e-53 7.9209e-54 5.63983e-54 3.90985e-54 2.63878e-54 1.73366e-54 1.10876e-54 6.90307e-55 4.18425e-55 2.46954e-55 1.41942e-55 7.9467e-56 4.33449e-56 2.30395e-56 1.19373e-56 6.03057e-57 2.97139e-57 1.42837e-57 6.701e-58 3.06899e-58 1.37261e-58 5.99709e-59 2.56045e-59 1.06861e-59 4.36102e-60 1.74088e-60 6.7999e-61 2.59972e-61 9.73154e-62 3.56781e-62 1.28151e-62 4.51102e-63 1.55665e-63 5.26739e-64 1.7483e-64 5.69343e-65 1.81966e-65 5.70933e-66 1.75902e-66 5.3231e-67 1.58261e-67 4.62389e-68 1.32792e-68 3.7495e-69 1.04112e-69 2.84285e-70 7.60768e-71 1.88601e-71 0 